LAMMPS data file via write_data, version 15 May 2015, timestep = 2070480

7501 atoms
10 atom types
7300 bonds
8 bond types
9857 angles
11 angle types
16560 dihedrals
13 dihedral types

0.0000000000000000e+00 6.3000000000000000e+01 xlo xhi
0.0000000000000000e+00 1.1154400000000000e+02 ylo yhi
0.0000000000000000e+00 1.0199999999999999e+01 zlo zhi

Masses

1	12.011  	# CA
2	12.011		# CT
3	15.9994		# OS
4	12.011		# CF
5	15.9994		# OH
6	1.0008		# HO
7	1.0008		# HW
8	15.9994		# OW
9	39.0980		# K		
10	35.4500		# Cl

Atoms # full

4 1 1 0.0000000000000000e+00 2.7998339242426962e+00 1.2124413234739591e+00 5.1012387804834241e+00 0 0 0
5 1 1 0.0000000000000000e+00 4.1999846850074851e+00 1.2125047035685530e+00 5.1038296799537965e+00 0 0 0
62 1 1 0.0000000000000000e+00 6.9977635942553540e-01 2.4248129505866696e+00 5.0964863004936269e+00 0 0 0
63 1 1 0.0000000000000000e+00 2.0999068032052151e+00 2.4248762276055453e+00 5.0975346534112269e+00 0 0 0
64 1 1 0.0000000000000000e+00 2.7998939816106869e+00 3.6372540102503357e+00 5.0955140709817561e+00 0 0 0
65 1 1 0.0000000000000000e+00 4.1999783800526975e+00 3.6373207356120041e+00 5.0990685933414852e+00 0 0 0
66 1 1 0.0000000000000000e+00 4.8999178636917646e+00 2.4249564079567398e+00 5.1017398102026768e+00 0 0 0
67 1 1 0.0000000000000000e+00 6.3000774247642921e+00 2.4249362344287331e+00 5.1017669629473890e+00 0 0 0
122 1 1 0.0000000000000000e+00 6.9965241444284876e-01 4.8496551527162728e+00 5.0917392379237194e+00 0 0 0
123 1 1 0.0000000000000000e+00 2.0999415858940091e+00 4.8496343392319012e+00 5.0902215806890325e+00 0 0 0
124 1 1 0.0000000000000000e+00 2.7999105430058320e+00 6.0621946764524512e+00 5.0950140400510548e+00 0 0 0
125 1 1 0.0000000000000000e+00 4.1999502462017659e+00 6.0621450167164310e+00 5.0970212650453108e+00 0 0 0
126 1 1 0.0000000000000000e+00 4.8999368347193730e+00 4.8497672088302526e+00 5.0987300801029187e+00 0 0 0
127 1 1 0.0000000000000000e+00 6.3000207593331279e+00 4.8498339396461212e+00 5.0996477617250386e+00 0 0 0
128 1 1 0.0000000000000000e+00 6.9999851807089657e+00 6.0622459926850540e+00 5.0993251664040153e+00 0 0 0
6 1 1 0.0000000000000000e+00 4.8998635580950118e+00 1.2216098722842809e-04 5.1062596078009745e+00 0 0 0
7 1 1 0.0000000000000000e+00 6.3001476016555502e+00 1.9129826620676388e-05 5.1046178848217032e+00 0 0 0
2 1 1 0.0000000000000000e+00 6.9980794047722761e-01 7.0178643852614186e-05 5.0994049097972072e+00 0 0 0
6986 1410 7 4.2359999999999998e-01 3.0824742276155614e+00 3.9170336827300405e+00 1.4802339880852606e+00 1 0 0
6774 1339 8 -8.4719999999999995e-01 6.8486326907032167e+00 4.9069023475379616e+00 1.2052980248522469e+00 1 -1 0
3731 325 7 4.2359999999999998e-01 7.3150441426228756e+00 4.7224507478707549e+00 8.4484719560469941e+00 3 1 -1
6985 1410 7 4.2359999999999998e-01 2.5075935146868336e+00 5.4414390808889843e+00 1.5912603205425844e+00 1 0 0
3865 370 7 4.2359999999999998e-01 6.0206600516956792e+00 5.3617557866738972e+00 9.8296961841011488e+00 0 1 -1
6772 1339 7 4.2359999999999998e-01 5.9619075779705115e+00 4.4800120767031819e+00 1.3827333709019345e+00 1 -1 0
3867 370 8 -8.4719999999999995e-01 5.6217080080275990e+00 5.4653871655182726e+00 8.9185986818822265e+00 0 1 -1
3866 370 7 4.2359999999999998e-01 5.1774838752710428e+00 4.6106633139118136e+00 8.6500599502815660e+00 0 1 -1
6206 1150 7 4.2359999999999998e-01 4.3534574317762793e+00 6.8285133944653298e+00 8.4933157652014071e+00 1 0 -1
6987 1410 8 -8.4719999999999995e-01 2.2669629541337089e+00 4.4722352007218511e+00 1.6436128758091868e+00 1 0 0
5579 941 7 4.2359999999999998e-01 4.8604028896439866e+00 2.4084092556360188e+00 1.7277199882321019e+00 1 0 0
4745 663 7 4.2359999999999998e-01 4.1686794861184859e+00 2.0847946013127823e+00 8.5447641383761557e+00 1 1 -1
3970 405 7 4.2359999999999998e-01 9.8900536614544654e-01 3.5372360074352285e+00 8.8927624523607796e-01 1 1 0
7300 1515 7 4.2359999999999998e-01 1.8626837324767702e+00 6.1877177268800230e+00 7.0859633136853653e+00 4 0 -1
7302 1515 8 -8.4719999999999995e-01 1.5089432516643360e+00 6.7274742028812051e+00 7.8498550751694189e+00 4 0 -1
5580 941 8 -8.4719999999999995e-01 4.6103815988363994e+00 3.2262436837126258e+00 1.2094186688266872e+00 1 0 0
4744 663 7 4.2359999999999998e-01 5.7523072703143034e+00 2.3969432962781556e+00 8.2971497289061151e+00 1 1 -1
4746 663 8 -8.4719999999999995e-01 4.8494014072841312e+00 2.8074276974118542e+00 8.4246810611031826e+00 1 1 -1
5963 1069 7 4.2359999999999998e-01 1.7101380304205037e+01 1.0904004872671891e-01 8.5247193893786193e+00 3 0 -1
5578 941 7 4.2359999999999998e-01 4.3482183530352501e+00 2.9649213491803152e+00 2.8045090832794700e-01 1 0 0
5988 1077 8 -8.4719999999999995e-01 2.0732923837970734e+01 1.1072022274582146e+01 8.4522655126027253e+00 4 1 -1
6543 1262 8 -8.4719999999999995e-01 2.9031694242014217e+00 2.7445530661430745e+01 1.6322926543452683e+00 0 1 0
5471 905 7 4.2359999999999998e-01 2.0682285739482809e+00 6.1466791923191921e-01 9.1407980459347140e+00 1 1 -1
5472 905 8 -8.4719999999999995e-01 2.9423986873708010e+00 7.5926534446807681e-01 9.6043907895453327e+00 1 1 -1
7301 1515 7 4.2359999999999998e-01 5.2988310331214028e-01 6.8853082086695458e+00 7.7212872617255597e+00 4 0 -1
3087 110 8 -8.4719999999999995e-01 4.3346624422911212e-01 5.7938894937578811e-01 8.5289403824111663e+00 0 0 -1
675 1 1 0.0000000000000000e+00 1.4700062724089198e+01 2.6673469212529533e+01 5.0935426862127855e+00 0 0 0
2996 80 7 4.2359999999999998e-01 8.4018232445752883e+00 6.5177856490581805e+00 1.4310168608773124e+00 3 -1 0
6773 1339 7 4.2359999999999998e-01 7.5731556196698842e+00 4.2253019534428837e+00 1.3077064290013896e+00 1 -1 0
3732 325 8 -8.4719999999999995e-01 8.0944832949635295e+00 4.1304010905763029e+00 8.2436500127017602e+00 3 1 -1
3330 191 8 -8.4719999999999995e-01 1.3171876826449262e+01 1.0547491819781423e+00 7.9423010023877738e-01 2 -1 0
3003 82 8 -8.4719999999999995e-01 8.7657107535758882e+00 3.1803187846902019e+00 9.8454440512669161e-01 0 1 0
3002 82 7 4.2359999999999998e-01 8.6480517456763248e+00 2.3750791423196684e+00 1.5657038356489397e+00 0 1 0
3001 82 7 4.2359999999999998e-01 9.6628131492046485e+00 3.5872933975241525e+00 1.1565299868961265e+00 0 1 0
3730 325 7 4.2359999999999998e-01 7.7834610990439304e+00 3.1826914395409478e+00 8.1721500082710499e+00 3 1 -1
6388 1211 7 4.2359999999999998e-01 8.9503315682163738e+00 6.5347202465006680e+00 8.2530106918894095e+00 3 -1 -1
2995 80 7 4.2359999999999998e-01 8.2796537162260613e+00 7.1775385483306993e+00 1.0142249840639714e+01 3 -1 -1
3637 294 7 4.2359999999999998e-01 7.5872617326993392e+00 1.7417207446404317e+00 9.3648252682934938e+00 -2 -1 -1
3639 294 8 -8.4719999999999995e-01 7.5184305936112157e+00 1.4549965628398749e+00 8.4092879528585023e+00 -2 -1 -1
4406 550 7 4.2359999999999998e-01 1.1758581554980783e+01 5.6661283971195529e+00 8.2624695354374467e+00 2 -1 -1
8 1 1 0.0000000000000000e+00 7.0000617332444239e+00 1.2125085741415951e+00 5.1031203670299163e+00 0 0 0
68 1 1 0.0000000000000000e+00 7.0000294163184584e+00 3.6374249568199288e+00 5.1000637815683607e+00 0 0 0
9 1 1 0.0000000000000000e+00 8.4001295687576967e+00 1.2123886977555316e+00 5.1016970205081034e+00 0 0 0
12 1 1 0.0000000000000000e+00 1.1200169703289099e+01 1.2124185568293688e+00 5.0990341066063438e+00 0 0 0
13 1 1 0.0000000000000000e+00 1.2600188615739128e+01 1.2123453001460021e+00 5.0985351414546800e+00 0 0 0
69 1 1 0.0000000000000000e+00 8.4000775802685297e+00 3.6373698215529027e+00 5.0993214943349239e+00 0 0 0
70 1 1 0.0000000000000000e+00 9.1001194329166477e+00 2.4249328111364230e+00 5.0999262643565277e+00 0 0 0
71 1 1 0.0000000000000000e+00 1.0500235054729400e+01 2.4248299420914381e+00 5.0987550301633204e+00 0 0 0
72 1 1 0.0000000000000000e+00 1.1200079203152189e+01 3.6373385792687842e+00 5.0991415100676791e+00 0 0 0
73 1 1 0.0000000000000000e+00 1.2600217604710418e+01 3.6372663588243048e+00 5.1000522029196986e+00 0 0 0
74 1 1 0.0000000000000000e+00 1.3300134001670758e+01 2.4248404808810129e+00 5.0989298913511778e+00 0 0 0
129 1 1 0.0000000000000000e+00 8.4000426476534962e+00 6.0622386580851169e+00 5.0988373540333765e+00 0 0 0
130 1 1 0.0000000000000000e+00 9.0999880286196984e+00 4.8498320366577810e+00 5.0989576200345379e+00 0 0 0
131 1 1 0.0000000000000000e+00 1.0500126031376288e+01 4.8497135476846145e+00 5.0990974448664321e+00 0 0 0
132 1 1 0.0000000000000000e+00 1.1200098316380860e+01 6.0623078031099258e+00 5.0987908452327995e+00 0 0 0
133 1 1 0.0000000000000000e+00 1.2600229910595967e+01 6.0622062226823061e+00 5.1001081656407710e+00 0 0 0
134 1 1 0.0000000000000000e+00 1.3300171233528371e+01 4.8497851442371696e+00 5.1007585748091504e+00 0 0 0
6870 1371 8 -8.4719999999999995e-01 1.1007580092664311e+01 3.8831021739305034e+00 8.7796623523549275e+00 2 0 -1
5903 1049 7 4.2359999999999998e-01 1.2094459221970691e+01 4.0916005020471387e+00 1.6827994249704838e+00 2 0 0
6868 1371 7 4.2359999999999998e-01 1.1641416221640727e+01 3.1228596927841519e+00 8.6372383490814464e+00 2 0 -1
6869 1371 7 4.2359999999999998e-01 1.0079253158017304e+01 3.5905293832033625e+00 8.5502922380911102e+00 2 0 -1
5902 1049 7 4.2359999999999998e-01 1.1176285412603839e+01 4.3031444144611166e+00 3.4907015820664777e-01 2 0 0
5904 1049 8 -8.4719999999999995e-01 1.1396799674950064e+01 4.6659010778298322e+00 1.2544883338448691e+00 2 0 0
3514 253 7 4.2359999999999998e-01 1.3769357014804163e+01 2.7390090753591254e+00 8.3901414565159644e+00 2 1 -1
5654 966 7 4.2359999999999998e-01 1.3307868141284226e+01 6.8818882934905075e+00 1.7855327374086307e+00 1 0 0
3267 170 8 -8.4719999999999995e-01 1.3988448185254514e+01 3.4748573624066581e+00 2.0222873225582787e+00 1 -1 0
3516 253 8 -8.4719999999999995e-01 1.2994758720801231e+01 2.1109257741961263e+00 8.3159175544525876e+00 2 1 -1
4407 550 8 -8.4719999999999995e-01 1.2141495777283939e+01 6.5792487838179134e+00 8.4024294950824121e+00 2 -1 -1
4405 550 7 4.2359999999999998e-01 1.3076142295319761e+01 6.4992291760178800e+00 8.7488887556860995e+00 2 -1 -1
3515 253 7 4.2359999999999998e-01 1.3242611972611620e+01 1.3446201766552632e+00 7.7231736693651376e+00 2 1 -1
3329 191 7 4.2359999999999998e-01 1.3068800211503573e+01 1.2442081068183004e+00 1.0017766198128863e+01 2 -1 -1
3638 294 7 4.2359999999999998e-01 7.7255273981763208e+00 4.7925242769047210e-01 8.3383347141367796e+00 -2 -1 -1
3328 191 7 4.2359999999999998e-01 1.3205377728637560e+01 1.9171390077353445e+00 1.2993659899915182e+00 2 -1 0
4987 744 7 4.2359999999999998e-01 1.1248750635725454e+01 7.8409660500062266e+00 6.0161345028484503e-01 -1 1 0
3971 405 7 4.2359999999999998e-01 4.5430141208136404e-01 2.0090073636693835e+00 6.7658695743576536e-01 1 1 0
4285 510 7 4.2359999999999998e-01 9.1929908081651082e+00 4.6756299076552749e-01 1.4346180483170552e+00 4 0 0
6390 1211 8 -8.4719999999999995e-01 9.2827880910021907e+00 7.4747539616916132e+00 8.3292311493417124e+00 3 -1 -1
6389 1211 7 4.2359999999999998e-01 1.0271986249829183e+01 7.4912948682685441e+00 8.1835811839984789e+00 3 -1 -1
4989 744 8 -8.4719999999999995e-01 1.1601666518447134e+01 7.3215613850765831e+00 1.3798609560587165e+00 -1 1 0
4988 744 7 4.2359999999999998e-01 1.1505823683922012e+01 6.3428428510668633e+00 1.1984106075855434e+00 -1 1 0
4870 705 7 4.2359999999999998e-01 1.1389460257827238e+01 2.1400618490495443e-01 8.3023577825095718e-01 2 1 0
4952 732 7 4.2359999999999998e-01 3.0332671551363666e-01 2.5073323536386923e+01 6.3520223953561650e-01 1 0 0
5964 1069 8 -8.4719999999999995e-01 1.6250855775764080e+01 6.3164946761716079e-01 8.4656511322479879e+00 3 0 -1
5655 966 8 -8.4719999999999995e-01 1.4099599937253746e+01 6.3045774162786108e+00 1.9852181100994934e+00 1 0 0
3266 170 7 4.2359999999999998e-01 1.4842086946154122e+01 3.0514550684420376e+00 1.7189205203349065e+00 1 -1 0
3265 170 7 4.2359999999999998e-01 1.4152515942280054e+01 4.4370301430544874e+00 2.2397852468306017e+00 1 -1 0
7171 1472 7 4.2359999999999998e-01 1.5275711220673626e+01 4.3615760521021354e+00 9.0191360600966490e+00 2 -1 -1
7173 1472 8 -8.4719999999999995e-01 1.5836579779933885e+01 3.5946013532433398e+00 8.7074049058468095e+00 2 -1 -1
7172 1472 7 4.2359999999999998e-01 1.6608142353604062e+01 3.9410866618144356e+00 8.1738890689027244e+00 2 -1 -1
4157 467 7 4.2359999999999998e-01 1.4533139473647637e+01 5.8204421648590250e+00 3.5532089728350769e-01 2 0 0
4158 467 8 -8.4719999999999995e-01 1.4707550794229503e+01 5.9564501194840789e+00 9.5800856556977738e+00 2 0 -1
4156 467 7 4.2359999999999998e-01 1.5482124880872700e+01 6.5781017272377831e+00 9.4635301186163474e+00 2 0 -1
6174 1139 8 -8.4719999999999995e-01 1.6317248649487819e+01 2.8828419746038652e+00 1.1087305374710383e+00 2 0 0
6173 1139 7 4.2359999999999998e-01 1.6210876377347063e+01 3.2543283182618947e+00 1.8640502651165428e-01 2 0 0
6172 1139 7 4.2359999999999998e-01 1.7286291469811495e+01 2.7168514406695796e+00 1.2914968466395742e+00 2 0 0
4126 457 7 4.2359999999999998e-01 1.7132131106591334e+01 4.6754979462417863e+00 2.1747273003886933e+00 4 0 0
4127 457 7 4.2359999999999998e-01 1.7312853362346555e+01 6.2983856157142375e+00 2.1889280407884715e+00 4 0 0
4128 457 8 -8.4719999999999995e-01 1.7730957333585081e+01 5.4326655232230294e+00 1.9137589044600691e+00 4 0 0
5339 861 7 4.2359999999999998e-01 1.9611993049608056e+01 5.2985066953113344e+00 1.2811151257885185e+00 0 1 0
5696 980 7 4.2359999999999998e-01 1.8916714384228424e+01 1.8523078778418465e+00 8.9453141528488600e-01 4 1 0
5697 980 8 -8.4719999999999995e-01 1.9039898440702391e+01 2.5847552964353877e+00 2.2494445871255112e-01 4 1 0
5695 980 7 4.2359999999999998e-01 1.9939681184808613e+01 2.4976359769424428e+00 9.9973908745772029e+00 4 1 -1
16 1 1 0.0000000000000000e+00 1.5400074938270839e+01 1.2123607158981178e+00 5.0991416744736382e+00 0 0 0
17 1 1 0.0000000000000000e+00 1.6800146837388397e+01 1.2124094062019086e+00 5.0988519037236903e+00 0 0 0
20 1 1 0.0000000000000000e+00 1.9599849466803814e+01 1.2125166500372941e+00 5.0973232209240376e+00 0 0 0
75 1 1 0.0000000000000000e+00 1.4700168665603654e+01 2.4247966602100095e+00 5.0987157805668222e+00 0 0 0
76 1 1 0.0000000000000000e+00 1.5400061846713633e+01 3.6372708282946982e+00 5.0992795649771185e+00 0 0 0
77 1 1 0.0000000000000000e+00 1.6800175208305685e+01 3.6371805116875051e+00 5.0997002820386896e+00 0 0 0
78 1 1 0.0000000000000000e+00 1.7500047307772640e+01 2.4248732697194098e+00 5.0980257796601318e+00 0 0 0
79 1 1 0.0000000000000000e+00 1.8900061992427101e+01 2.4248841601324993e+00 5.0971790820135601e+00 0 0 0
80 1 1 0.0000000000000000e+00 1.9599989259222440e+01 3.6373864801142100e+00 5.0985398016507171e+00 0 0 0
135 1 1 0.0000000000000000e+00 1.4700214444416693e+01 4.8497146523250372e+00 5.1005049235956319e+00 0 0 0
136 1 1 0.0000000000000000e+00 1.5400031672900957e+01 6.0622288480447697e+00 5.1008526998873434e+00 0 0 0
137 1 1 0.0000000000000000e+00 1.6800114918910182e+01 6.0622154807181099e+00 5.1024847844253207e+00 0 0 0
138 1 1 0.0000000000000000e+00 1.7500071281985733e+01 4.8498684507813170e+00 5.1034448219341106e+00 0 0 0
139 1 1 0.0000000000000000e+00 1.8900227999544100e+01 4.8497622898029560e+00 5.1031792106832556e+00 0 0 0
140 1 1 0.0000000000000000e+00 1.9600056376225442e+01 6.0622275265678915e+00 5.1074192971925472e+00 0 0 0
21 1 1 0.0000000000000000e+00 2.0999922940048087e+01 1.2123896198599811e+00 5.0971792470096959e+00 0 0 0
81 1 1 0.0000000000000000e+00 2.0999975479947555e+01 3.6373563207615676e+00 5.0980661535964584e+00 0 0 0
5344 863 7 4.2359999999999998e-01 1.9131904371705023e+01 5.5228234354760373e+00 9.6393188229759943e+00 3 -1 -1
3759 334 8 -8.4719999999999995e-01 5.7122971478129001e+00 8.0934838843850365e-01 1.7593989450700223e+00 1 -1 0
5345 863 7 4.2359999999999998e-01 1.8652975146303884e+01 3.9630207310983523e+00 9.5739825520413060e+00 3 -1 -1
5346 863 8 -8.4719999999999995e-01 1.8537778369034559e+01 4.8701432295823253e+00 9.1691881334078431e+00 3 -1 -1
6629 1291 7 4.2359999999999998e-01 1.7440875323492946e+01 6.2255426981732223e+00 8.6995488416615672e+00 -1 1 -1
5962 1069 7 4.2359999999999998e-01 1.6445784032347660e+01 1.6024644179225414e+00 8.6053704743539470e+00 3 0 -1
5570 938 7 4.2359999999999998e-01 4.8307689770878310e+00 6.3368351197578496e+00 2.3277413631787360e+00 1 0 0
6207 1150 8 -8.4719999999999995e-01 3.9482231017083587e+00 7.7413754591861990e+00 8.4436310548669198e+00 1 0 -1
6205 1150 7 4.2359999999999998e-01 3.0370896367329552e+00 7.6798591929240008e+00 8.0361362527663918e+00 1 0 -1
4138 461 7 4.2359999999999998e-01 1.5556840094296265e+00 7.4164478406820020e+00 9.7721133843128456e+00 2 1 -1
5571 938 8 -8.4719999999999995e-01 4.0461682060931556e+00 6.8886923109867348e+00 2.0451538120617543e+00 1 0 0
5569 938 7 4.2359999999999998e-01 4.2827804055710139e+00 7.8585864700477108e+00 2.1027793712260090e+00 1 0 0
4139 461 7 4.2359999999999998e-01 2.5157198390675881e+00 7.1589791644857197e+00 8.6774757328652019e-01 2 1 0
6905 1383 7 4.2359999999999998e-01 9.7503186548192833e-01 8.8451577507256207e+00 1.5276469226161402e+00 3 1 0
7299 1514 8 -8.4719999999999995e-01 1.3780388912345329e+00 1.1871482511594870e+01 1.0276882575290831e+00 0 1 0
3062 102 7 4.2359999999999998e-01 5.7723535354167055e+00 1.3608357138766261e+01 1.6627128719086541e+00 2 1 0
5823 1022 8 -8.4719999999999995e-01 3.5795745773247472e+00 1.0599493176584305e+01 1.5401818244960130e+00 1 0 0
4006 417 7 4.2359999999999998e-01 5.1694572266097092e+00 8.8058176740150262e+00 9.2545959078641644e+00 2 1 -1
6980 1408 7 4.2359999999999998e-01 5.8438670013446705e+00 9.2175787047347679e+00 1.0320035950327795e+00 2 0 0
4008 417 8 -8.4719999999999995e-01 5.5439968009716045e+00 9.6589271090181299e+00 9.6178099416951746e+00 2 1 -1
6979 1408 7 4.2359999999999998e-01 6.8211799303209810e+00 8.6168973286323283e+00 2.1941859505351511e+00 2 0 0
6981 1408 8 -8.4719999999999995e-01 5.9242701333487151e+00 9.0183031871963255e+00 2.0086430569182823e+00 2 0 0
4007 417 7 4.2359999999999998e-01 4.9553915357342628e+00 1.0421865325011478e+01 9.3504727864836887e+00 2 1 -1
301 1 1 0.0000000000000000e+00 5.2091709534352049e-05 1.3336689972849978e+01 5.1056022390909215e+00 0 0 0
182 1 1 0.0000000000000000e+00 6.9973351787877858e-01 7.2745567758576337e+00 5.0966755325059117e+00 0 0 0
183 1 1 0.0000000000000000e+00 2.0999465515320979e+00 7.2745665108911828e+00 5.0984103520150770e+00 0 0 0
184 1 1 0.0000000000000000e+00 2.7998387351339153e+00 8.4870539876107713e+00 5.1009054951759332e+00 0 0 0
185 1 1 0.0000000000000000e+00 4.1999602708392123e+00 8.4870593598127364e+00 5.1003064384644805e+00 0 0 0
186 1 1 0.0000000000000000e+00 4.8999159348052412e+00 7.2746134373799300e+00 5.0997149064087370e+00 0 0 0
187 1 1 0.0000000000000000e+00 6.3000602083029849e+00 7.2745804606702862e+00 5.1000893274978720e+00 0 0 0
242 1 1 0.0000000000000000e+00 6.9979751210640151e-01 9.6995104764732645e+00 5.1006618786121889e+00 0 0 0
243 1 1 0.0000000000000000e+00 2.0999602665957227e+00 9.6994738236361790e+00 5.1024226056412143e+00 0 0 0
244 1 1 0.0000000000000000e+00 2.7999873900373231e+00 1.0911939038835971e+01 5.1027702983957131e+00 0 0 0
245 1 1 0.0000000000000000e+00 4.2000531508407262e+00 1.0911943108122683e+01 5.1004395597615124e+00 0 0 0
246 1 1 0.0000000000000000e+00 4.8999117945198396e+00 9.6994895112021275e+00 5.0998711845143445e+00 0 0 0
247 1 1 0.0000000000000000e+00 6.2999453997942974e+00 9.6994466175325638e+00 5.1002750855966843e+00 0 0 0
302 1 1 0.0000000000000000e+00 6.9990857513438054e-01 1.2124407580115291e+01 5.1045576081946180e+00 0 0 0
303 1 1 0.0000000000000000e+00 2.1000270725305561e+00 1.2124354332810098e+01 5.1034239062361335e+00 0 0 0
304 1 1 0.0000000000000000e+00 2.8000600611610897e+00 1.3336745380313490e+01 5.1014101593902623e+00 0 0 0
305 1 1 0.0000000000000000e+00 4.2001313528522930e+00 1.3336748402641328e+01 5.0992335299423219e+00 0 0 0
306 1 1 0.0000000000000000e+00 4.9000322855272485e+00 1.2124312645142309e+01 5.0989317927743736e+00 0 0 0
307 1 1 0.0000000000000000e+00 6.3000280443104586e+00 1.2124250036472271e+01 5.0989578585644662e+00 0 0 0
188 1 1 0.0000000000000000e+00 6.9999382344799335e+00 8.4870430403508959e+00 5.1002366684252411e+00 0 0 0
248 1 1 0.0000000000000000e+00 6.9999024110744354e+00 1.0911954281874982e+01 5.1006766687510279e+00 0 0 0
5821 1022 7 4.2359999999999998e-01 4.4551370304961271e+00 1.0190822317825418e+01 1.7978230025373287e+00 1 0 0
3360 201 8 -8.4719999999999995e-01 6.5888081849360116e+00 1.2566195875564867e+01 8.0886533678912418e+00 2 1 -1
3358 201 7 4.2359999999999998e-01 5.6588536865264638e+00 1.2211282483766622e+01 8.1846859437157189e+00 2 1 -1
7457 1567 7 4.2359999999999998e-01 3.2047083766673077e+00 1.1286599438015712e+01 8.3790510939472824e+00 1 0 -1
7458 1567 8 -8.4719999999999995e-01 4.0103905609774388e+00 1.1780318711089205e+01 8.7063392052372031e+00 1 0 -1
5822 1022 7 4.2359999999999998e-01 3.0651807508566291e+00 9.9558045698718729e+00 9.7355669483125817e-01 1 0 0
7456 1567 7 4.2359999999999998e-01 3.7221738362529782e+00 1.2616852655786907e+01 9.1723243091806363e+00 1 0 -1
7298 1514 7 4.2359999999999998e-01 2.2650445353842326e+00 1.1576284649139163e+01 1.3827646637287561e+00 0 1 0
3061 102 7 4.2359999999999998e-01 4.6079092868548486e+00 1.3024150773229369e+01 2.6472940710099864e+00 2 1 0
7072 1439 7 4.2359999999999998e-01 3.8856264549381825e+00 1.4409570627127181e+01 5.5751788782150247e-01 1 2 0
3063 102 8 -8.4719999999999995e-01 4.9156216381091715e+00 1.3823630911126136e+01 2.1314019323903510e+00 2 1 0
4140 461 8 -8.4719999999999995e-01 1.6557561582851641e+00 7.5632155887769938e+00 5.5620964467561151e-01 2 1 0
7297 1514 7 4.2359999999999998e-01 6.7996374193302822e-01 1.1199089983618389e+01 1.2738171069991915e+00 0 1 0
7000 1415 7 4.2359999999999998e-01 8.5930296290408481e-01 1.2417154541346443e+01 9.6124618848765362e+00 2 0 -1
2997 80 8 -8.4719999999999995e-01 8.3395274363826228e+00 7.3754740124544922e+00 9.2063464405038786e-01 3 -1 0
7024 1423 7 4.2359999999999998e-01 7.1152288426587029e+00 1.0002776908516124e+01 8.8993153729786592e+00 1 0 -1
3359 201 7 4.2359999999999998e-01 7.2277402506275781e+00 1.1803679042224728e+01 7.9869952354422065e+00 2 1 -1
5640 961 8 -8.4719999999999995e-01 9.6920519260588414e+00 9.7630058287506856e+00 1.9582966694953396e+00 5 0 0
5639 961 7 4.2359999999999998e-01 9.1675704297280980e+00 8.9708764166730344e+00 1.6461257152240096e+00 5 0 0
5638 961 7 4.2359999999999998e-01 1.0436660869519248e+01 9.4569867654521556e+00 2.5515167052561165e+00 5 0 0
7025 1423 7 4.2359999999999998e-01 8.2663561417921478e+00 9.2142221187261750e+00 8.0509559002428368e+00 1 0 -1
7026 1423 8 -8.4719999999999995e-01 7.9796756732491803e+00 1.0103700116812933e+01 8.4068255697927139e+00 1 0 -1
4760 668 7 4.2359999999999998e-01 7.6657240971394476e+00 1.2569300612056093e+01 6.9645303912805501e-01 3 0 0
4761 668 8 -8.4719999999999995e-01 7.0747715646043448e+00 1.3365369901827187e+01 5.6588125484608198e-01 3 0 0
4759 668 7 4.2359999999999998e-01 6.7102880821293356e+00 1.3360762412481215e+01 9.8346823704019837e+00 3 0 -1
6690 1311 8 -8.4719999999999995e-01 1.0097943806525587e+01 1.2247215948210837e+01 5.8173538291042037e-01 0 2 0
6688 1311 7 4.2359999999999998e-01 9.7257216520669356e+00 1.1453230306728049e+01 1.0623998807164319e+00 0 2 0
5387 877 7 4.2359999999999998e-01 9.4790845210286712e+00 1.0960998047315339e+01 8.1803460742243921e+00 3 2 -1
5908 1051 7 4.2359999999999998e-01 9.5482106736755092e+00 1.3280706879333010e+01 7.7369151130518858e+00 0 0 -1
5388 877 8 -8.4719999999999995e-01 1.0324826282604066e+01 1.1488599302239429e+01 8.1006015542851699e+00 3 2 -1
5386 877 7 4.2359999999999998e-01 1.1077970161844542e+01 1.0876593946046363e+01 7.8593039755090333e+00 3 2 -1
6689 1311 7 4.2359999999999998e-01 1.0025882215949149e+01 1.2103305771655304e+01 9.7947715116764655e+00 0 2 -1
5612 952 7 4.2359999999999998e-01 1.2255093645218281e+01 8.5131926283624750e+00 8.2158577909346278e+00 1 2 -1
3708 317 8 -8.4719999999999995e-01 1.2640459629049275e+01 1.0926356429184214e+01 6.7456971326972648e-01 3 0 0
3706 317 7 4.2359999999999998e-01 1.1918710817913395e+01 1.1569969535284852e+01 9.2920971407142439e-01 3 0 0
189 1 1 0.0000000000000000e+00 8.4000073971993974e+00 8.4870851821209339e+00 5.0994405909781921e+00 0 0 0
190 1 1 0.0000000000000000e+00 9.0999450168428417e+00 7.2747491958297354e+00 5.0981422349565788e+00 0 0 0
191 1 1 0.0000000000000000e+00 1.0500069477247147e+01 7.2746923437021618e+00 5.0973926832044221e+00 0 0 0
192 1 1 0.0000000000000000e+00 1.1199973171832871e+01 8.4871650365105804e+00 5.0977563447457932e+00 0 0 0
193 1 1 0.0000000000000000e+00 1.2600065810049971e+01 8.4871082101300086e+00 5.1002969628907264e+00 0 0 0
194 1 1 0.0000000000000000e+00 1.3300067854965508e+01 7.2746464638166382e+00 5.1001127203510306e+00 0 0 0
249 1 1 0.0000000000000000e+00 8.4000075676310555e+00 1.0911893710488453e+01 5.1020865388062795e+00 0 0 0
250 1 1 0.0000000000000000e+00 9.0998964466228500e+00 9.6995469356100763e+00 5.1004834903580134e+00 0 0 0
251 1 1 0.0000000000000000e+00 1.0500045785384176e+01 9.6995889348198538e+00 5.0996116182441638e+00 0 0 0
252 1 1 0.0000000000000000e+00 1.1199930375590725e+01 1.0911971079194604e+01 5.1035058422645356e+00 0 0 0
253 1 1 0.0000000000000000e+00 1.2600007177290061e+01 1.0911865189077844e+01 5.1028956521705826e+00 0 0 0
254 1 1 0.0000000000000000e+00 1.3299937821603571e+01 9.6995615544240668e+00 5.1020333552250587e+00 0 0 0
308 1 1 0.0000000000000000e+00 7.0000240636793363e+00 1.3336653087050980e+01 5.0987690060745283e+00 0 0 0
309 1 1 0.0000000000000000e+00 8.4001146795491302e+00 1.3336689386071734e+01 5.1011786981707541e+00 0 0 0
310 1 1 0.0000000000000000e+00 9.0999472718848615e+00 1.2124302089929214e+01 5.1035240613832711e+00 0 0 0
311 1 1 0.0000000000000000e+00 1.0499932617362836e+01 1.2124301127560580e+01 5.1058488450455179e+00 0 0 0
312 1 1 0.0000000000000000e+00 1.1199890470232937e+01 1.3336872810992990e+01 5.1069262988343231e+00 0 0 0
313 1 1 0.0000000000000000e+00 1.2600076520446706e+01 1.3336788448407834e+01 5.1051446028985614e+00 0 0 0
314 1 1 0.0000000000000000e+00 1.3299947050837890e+01 1.2124347476818235e+01 5.1034244644561957e+00 0 0 0
5613 952 8 -8.4719999999999995e-01 1.2451160393183514e+01 9.4935067618313802e+00 8.2391400533786783e+00 1 2 -1
5611 952 7 4.2359999999999998e-01 1.3427524722360465e+01 9.6419670189346700e+00 8.0820658454103764e+00 1 2 -1
3707 317 7 4.2359999999999998e-01 1.2352589166078964e+01 1.0402961165749126e+01 1.0072579284107917e+01 3 0 -1
7087 1444 7 4.2359999999999998e-01 1.0950627994203295e+01 1.3987295457036065e+01 2.2155626545356921e-01 0 2 0
7088 1444 7 4.2359999999999998e-01 1.2162829622329216e+01 1.4815270716565387e+01 9.7062577963147465e+00 0 2 -1
7089 1444 8 -8.4719999999999995e-01 1.1601002506936005e+01 1.4739128625216217e+01 3.3000170279776303e-01 0 2 0
5910 1051 8 -8.4719999999999995e-01 9.8901173686461661e+00 1.4219633826656484e+01 7.7758545052782226e+00 0 0 -1
5909 1051 7 4.2359999999999998e-01 1.0887034147606441e+01 1.4208383331314796e+01 7.8535110946668532e+00 0 0 -1
5653 966 7 4.2359999999999998e-01 1.4900977592278577e+01 6.8812277110672806e+00 2.1441836207196046e+00 1 0 0
3699 314 8 -8.4719999999999995e-01 1.6256832922761010e+01 7.9284783564678758e+00 1.9706843335467923e+00 0 1 0
4314 519 8 -8.4719999999999995e-01 1.4152274158472586e+01 1.2429839689050741e+01 8.7858187760533308e+00 0 -1 -1
4312 519 7 4.2359999999999998e-01 1.4953892074671892e+01 1.2026241378503180e+01 8.3447775684185537e+00 0 -1 -1
3697 314 7 4.2359999999999998e-01 1.7231636173416710e+01 8.1427173582870545e+00 2.0328157452729450e+00 0 1 0
4313 519 7 4.2359999999999998e-01 1.3857295206812033e+01 1.1844512441019933e+01 9.5410536626990758e+00 0 -1 -1
6617 1287 7 4.2359999999999998e-01 1.9819045035116915e+01 7.6089108097116345e+00 1.4836822861659573e+00 3 0 0
6630 1291 8 -8.4719999999999995e-01 1.6988178635188014e+01 7.1081643978040132e+00 8.5728812128721632e+00 -1 1 -1
6628 1291 7 4.2359999999999998e-01 1.7676894715001051e+01 7.8175424320013605e+00 8.4230380289019600e+00 -1 1 -1
5175 806 8 -8.4719999999999995e-01 1.5270077646472101e+01 1.0188903306656671e+01 8.2296230095660561e-01 1 -1 0
5173 806 7 4.2359999999999998e-01 1.4276900047472532e+01 1.0219792697070714e+01 9.3540853512815736e-01 1 -1 0
5174 806 7 4.2359999999999998e-01 1.5698536474215205e+01 1.0819792587279109e+01 1.4698021539881463e+00 1 -1 0
3852 365 8 -8.4719999999999995e-01 1.6670066996699493e+01 1.2097246865122191e+01 2.1846257225918797e+00 1 1 0
3924 389 8 -8.4719999999999995e-01 1.5042954061539609e+01 9.4092709393732008e+00 8.4603400423948276e+00 0 1 -1
3923 389 7 4.2359999999999998e-01 1.5153892591988685e+01 9.7784007658274081e+00 9.3830735047155045e+00 0 1 -1
3698 314 7 4.2359999999999998e-01 1.5801215615680151e+01 8.6113724763891959e+00 1.3996602230118982e+00 0 1 0
3850 365 7 4.2359999999999998e-01 1.7542712293344827e+01 1.2066078892995458e+01 2.6719847959109182e+00 1 1 0
3922 389 7 4.2359999999999998e-01 1.5647598570252759e+01 8.6216932416858914e+00 8.3414837969817821e+00 0 1 -1
6616 1287 7 4.2359999999999998e-01 1.9697417586149154e+01 9.2218119902673497e+00 1.7081447139937025e+00 3 0 0
6618 1287 8 -8.4719999999999995e-01 1.9182802139033196e+01 8.3701133520932842e+00 1.6092449960019142e+00 3 0 0
4239 494 8 -8.4719999999999995e-01 1.8640722933107003e+01 9.3972577461844917e+00 9.0261556247393315e+00 2 -1 -1
4238 494 7 4.2359999999999998e-01 1.8728804902809372e+01 9.0433949941421989e+00 9.9572964380585169e+00 2 -1 -1
4237 494 7 4.2359999999999998e-01 1.8053289360971853e+01 1.0206514341750397e+01 9.0313055519207506e+00 2 -1 -1
5986 1077 7 4.2359999999999998e-01 2.0138877613260593e+01 1.1872877845502993e+01 8.5280315274228595e+00 4 1 -1
5470 905 7 4.2359999999999998e-01 2.8019873977236038e+00 7.3953911050560028e-01 3.9428753431721880e-01 1 1 0
5987 1077 7 4.2359999999999998e-01 2.0187711646439190e+01 1.0240988839260579e+01 8.5623932637735383e+00 4 1 -1
5112 785 8 -8.4719999999999995e-01 1.7185876638714120e+01 1.2031022923732285e+01 9.3713685836453742e+00 0 1 -1