 vasp.5.4.4.18Apr17-6-g9f103f2a35 (build Apr 11 2019 18:12:45) complex          
  
 executed on             LinuxIFC date 2019.11.13  17:46:11
 running on   24 total cores
 distrk:  each k-point on   24 cores,    1 groups
 distr:  one band on NCORES_PER_BAND=   1 cores,   24 groups


--------------------------------------------------------------------------------------------------------


 INCAR:
 POTCAR:   PAW_PBE C 08Apr2002                    
 POTCAR:    PAW_PBE Na_pv 19Sep2006               

 ----------------------------------------------------------------------------- 
|                                                                             |
|           W    W    AA    RRRRR   N    N  II  N    N   GGGG   !!!           |
|           W    W   A  A   R    R  NN   N  II  NN   N  G    G  !!!           |
|           W    W  A    A  R    R  N N  N  II  N N  N  G       !!!           |
|           W WW W  AAAAAA  RRRRR   N  N N  II  N  N N  G  GGG   !            |
|           WW  WW  A    A  R   R   N   NN  II  N   NN  G    G                |
|           W    W  A    A  R    R  N    N  II  N    N   GGGG   !!!           |
|                                                                             |
|      For optimal performance we recommend to set                            |
|        NCORE= 4 - approx SQRT( number of cores)                             |
|      NCORE specifies how many cores store one orbital (NPAR=cpu/NCORE).     |
|      This setting can  greatly improve the performance of VASP for DFT.     |
|      The default,   NCORE=1            might be grossly inefficient         |
|      on modern multi-core architectures or massively parallel machines.     |
|      Do your own testing !!!!                                               |
|      Unfortunately you need to use the default for GW and RPA calculations. |
|      (for HF NCORE is supported but not extensively tested yet)             |
|                                                                             |
 ----------------------------------------------------------------------------- 

 POTCAR:   PAW_PBE C 08Apr2002                    
   VRHFIN =C: s2p2                                                              
   LEXCH  = PE                                                                  
   EATOM  =   147.1560 eV,   10.8157 Ry                                         
                                                                                
   TITEL  = PAW_PBE C 08Apr2002                                                 
   LULTRA =        F    use ultrasoft PP ?                                      
   IUNSCR =        0    unscreen: 0-lin 1-nonlin 2-no                           
   RPACOR =     .000    partial core radius                                     
   POMASS =   12.011; ZVAL   =    4.000    mass and valenz                      
   RCORE  =    1.500    outmost cutoff radius                                   
   RWIGS  =    1.630; RWIGS  =     .863    wigner-seitz radius (au A)           
   ENMAX  =  400.000; ENMIN  =  300.000 eV                                      
   ICORE  =        2    local potential                                         
   LCOR   =        T    correct aug charges                                     
   LPAW   =        T    paw PP                                                  
   EAUG   =  644.873                                                            
   DEXC   =     .000                                                            
   RMAX   =    2.266    core radius for proj-oper                               
   RAUG   =    1.300    factor for augmentation sphere                          
   RDEP   =    1.501    radius for radial grids                                 
   RDEPT  =    1.300    core radius for aug-charge                              
   QCUT   =   -5.516; QGAM   =   11.032    optimization parameters              
                                                                                
   Description                                                                  
     l     E      TYP  RCUT    TYP  RCUT                                        
     0   .000     23  1.200                                                     
     0   .000     23  1.200                                                     
     1   .000     23  1.500                                                     
     1  2.500     23  1.500                                                     
     2   .000      7  1.500                                                     
  local pseudopotential read in
  atomic valenz-charges read in
  non local Contribution for L=           0  read in
    real space projection operators read in
  non local Contribution for L=           0  read in
    real space projection operators read in
  non local Contribution for L=           1  read in
    real space projection operators read in
  non local Contribution for L=           1  read in
    real space projection operators read in
    PAW grid and wavefunctions read in
 
   number of l-projection  operators is LMAX  =           4
   number of lm-projection operators is LMMAX =           8
 
 POTCAR:    PAW_PBE Na_pv 19Sep2006               
   VRHFIN =Na: p6s1                                                             
   LEXCH  = PE                                                                  
   EATOM  =   766.0439 eV,   56.3026 Ry                                         
                                                                                
   TITEL  = PAW_PBE Na_pv 19Sep2006                                             
   LULTRA =        F    use ultrasoft PP ?                                      
   IUNSCR =        1    unscreen: 0-lin 1-nonlin 2-no                           
   RPACOR =    1.800    partial core radius                                     
   POMASS =   22.990; ZVAL   =    7.000    mass and valenz                      
   RCORE  =    2.200    outmost cutoff radius                                   
   RWIGS  =    2.200; RWIGS  =    1.164    wigner-seitz radius (au A)           
   ENMAX  =  259.561; ENMIN  =  194.671 eV                                      
   ICORE  =        2    local potential                                         
   LCOR   =        T    correct aug charges                                     
   LPAW   =        T    paw PP                                                  
   EAUG   =  368.056                                                            
   DEXC   =     .000                                                            
   RMAX   =    2.862    core radius for proj-oper                               
   RAUG   =    1.300    factor for augmentation sphere                          
   RDEP   =    2.259    radius for radial grids                                 
   QCUT   =   -4.368; QGAM   =    8.735    optimization parameters              
                                                                                
   Description                                                                  
     l     E      TYP  RCUT    TYP  RCUT                                        
     1   .000     23  2.000                                                     
     1   .500     23  2.000                                                     
     0   .000     23  2.200                                                     
     0  2.500     23  2.200                                                     
     2  -.100     23  2.200                                                     
  local pseudopotential read in
  partial core-charges read in
  atomic valenz-charges read in
  non local Contribution for L=           1  read in
    real space projection operators read in
  non local Contribution for L=           1  read in
    real space projection operators read in
  non local Contribution for L=           0  read in
    real space projection operators read in
  non local Contribution for L=           0  read in
    real space projection operators read in
    PAW grid and wavefunctions read in
 
   number of l-projection  operators is LMAX  =           4
   number of lm-projection operators is LMMAX =           8
 
 Optimization of the real space projectors (new method)

 maximal supplied QI-value         = 25.13
 optimisation between [QCUT,QGAM] = [ 11.31, 28.40] = [ 35.82,225.87] Ry 
 Optimized for a Real-space Cutoff    0.93 Angstroem

   l    n(q)    QCUT    max X(q) W(low)/X(q) W(high)/X(q)  e(spline) 
   0      8    11.310     5.582    0.36E-04    0.13E-04    0.14E-07
   0      8    11.310    69.432    0.28E-03    0.21E-03    0.11E-06
   1      7    11.310     2.780    0.37E-04    0.49E-04    0.22E-07
   1      7    11.310     4.549    0.27E-03    0.38E-03    0.91E-07
 Optimization of the real space projectors (new method)

 maximal supplied QI-value         = 17.01
 optimisation between [QCUT,QGAM] = [ 11.40, 28.57] = [ 36.36,228.61] Ry 
 Optimized for a Real-space Cutoff    1.25 Angstroem

   l    n(q)    QCUT    max X(q) W(low)/X(q) W(high)/X(q)  e(spline) 
   1     10    11.395     4.977    0.23E-05    0.17E-05    0.20E-07
   1     10    11.395     7.312    0.34E-03    0.16E-03    0.87E-06
   0     11    11.395    36.258    0.15E-04    0.97E-06    0.30E-07
   0     11    11.395    45.649    0.12E-04    0.89E-05    0.80E-07
 PAW_PBE C 08Apr2002                    :
 energy of atom  1       EATOM= -147.1560
 kinetic energy error for atom=    0.0076 (will be added to EATOM!!)
  PAW_PBE Na_pv 19Sep2006               :
 energy of atom  2       EATOM= -766.0439
 kinetic energy error for atom=    0.0021 (will be added to EATOM!!)
 
 
 POSCAR: graphene+Na                             
  positions in direct lattice
  velocities in cartesian coordinates
 exchange correlation table for  LEXCH =        8
   RHO(1)=    0.500       N(1)  =     2000
   RHO(2)=  100.500       N(2)  =     4000
 


--------------------------------------------------------------------------------------------------------


 ion  position               nearest neighbor table
   1  0.166  0.083  0.500-  29 1.42  18 1.42  17 1.43
   2  0.417  0.083  0.500-  30 1.42  18 1.42  19 1.43
   3  0.667  0.083  0.500-  19 1.42  31 1.42  20 1.42
   4  0.917  0.083  0.500-  17 1.42  32 1.42  20 1.42
   5  0.166  0.333  0.500-  17 1.42  21 1.42  22 1.43
   6  0.416  0.333  0.499-  18 1.43  22 1.43  23 1.43
   7  0.667  0.333  0.500-  24 1.42  19 1.42  23 1.43
   8  0.917  0.333  0.500-  24 1.42  21 1.42  20 1.42
   9  0.166  0.583  0.500-  25 1.42  26 1.42  21 1.43
  10  0.416  0.584  0.499-  26 1.43  27 1.43  22 1.43
  11  0.667  0.584  0.499-  28 1.43  27 1.43  23 1.43
  12  0.917  0.583  0.500-  25 1.42  28 1.42  24 1.43
  13  0.167  0.833  0.500-  25 1.42  29 1.42  30 1.42
  14  0.417  0.834  0.500-  30 1.42  26 1.42  31 1.43
  15  0.667  0.834  0.500-  32 1.42  31 1.42  27 1.43
  16  0.917  0.834  0.500-  29 1.42  28 1.42  32 1.43
  17  0.083  0.166  0.500-   4 1.42   5 1.42   1 1.43
  18  0.333  0.166  0.500-   2 1.42   1 1.42   6 1.43
  19  0.583  0.166  0.500-   3 1.42   7 1.42   2 1.43
  20  0.833  0.167  0.500-   3 1.42   4 1.42   8 1.42
  21  0.083  0.417  0.500-   8 1.42   5 1.42   9 1.43
  22  0.333  0.416  0.499-   5 1.43   6 1.43  10 1.43
  23  0.584  0.416  0.499-   7 1.43  11 1.43   6 1.43
  24  0.834  0.417  0.500-   8 1.42   7 1.42  12 1.43
  25  0.083  0.667  0.500-   9 1.42  12 1.42  13 1.42
  26  0.333  0.667  0.500-  14 1.42   9 1.42  10 1.43
  27  0.584  0.667  0.499-  15 1.43  11 1.43  10 1.43
  28  0.834  0.667  0.500-  12 1.42  16 1.42  11 1.43
  29  0.083  0.917  0.500-   1 1.42  16 1.42  13 1.42
  30  0.333  0.917  0.500-  14 1.42   2 1.42  13 1.42
  31  0.583  0.917  0.500-   3 1.42  15 1.42  14 1.43
  32  0.834  0.917  0.500-   4 1.42  15 1.42  16 1.43
  33  0.500  0.500  0.615-
 
  LATTYP: Found a hexagonal cell.
 ALAT       =     9.8742351532
 C/A-ratio  =     2.0254733344
  
  Lattice vectors:
  
 A1 = (   9.8742351532,   0.0000000000,   0.0000000000)
 A2 = (  -4.9371175766,   8.5513384856,   0.0000000000)
 A3 = (   0.0000000000,   0.0000000000,  20.0000000000)


Analysis of symmetry for initial positions (statically):
=====================================================================
 Subroutine PRICEL returns:
 Original cell was already a primitive cell.
 

 Routine SETGRP: Setting up the symmetry group for a 
 hexagonal supercell.


 Subroutine GETGRP returns: Found  1 space group operations
 (whereof  1 operations were pure point group operations)
 out of a pool of 24 trial point group operations.


The static configuration has the point symmetry C_1 .


Analysis of symmetry for dynamics (positions and initial velocities):
=====================================================================
 Subroutine PRICEL returns:
 Original cell was already a primitive cell.
 

 Routine SETGRP: Setting up the symmetry group for a 
 hexagonal supercell.


 Subroutine GETGRP returns: Found  1 space group operations
 (whereof  1 operations were pure point group operations)
 out of a pool of 24 trial point group operations.


The dynamic configuration has the point symmetry C_1 .


Analysis of constrained symmetry for selective dynamics:
=====================================================================
 Subroutine PRICEL returns:
 Original cell was already a primitive cell.
 

 Routine SETGRP: Setting up the symmetry group for a 
 hexagonal supercell.


 Subroutine GETGRP returns: Found  1 space group operations
 (whereof  1 operations were pure point group operations)
 out of a pool of 24 trial point group operations.


The constrained configuration has the point symmetry C_1 .


Analysis of structural, dynamic, and magnetic symmetry:
=====================================================================
 Subroutine PRICEL returns:
 Original cell was already a primitive cell.
 

 Routine SETGRP: Setting up the symmetry group for a 
 hexagonal supercell.


 Subroutine GETGRP returns: Found  1 space group operations
 (whereof  1 operations were pure point group operations)
 out of a pool of 24 trial point group operations.


The magnetic configuration has the point symmetry C_1 .


 Subroutine INISYM returns: Found  1 space group operations
 (whereof  1 operations are pure point group operations),
 and found     1 'primitive' translations

 
 
 KPOINTS: Automatic mesh                          

Automatic generation of k-mesh.
Space group operators:
 irot       det(A)        alpha          n_x          n_y          n_z        tau_x        tau_y        tau_z
    1     1.000000     0.000000     1.000000     0.000000     0.000000     0.000000     0.000000     0.000000
 
 Subroutine IBZKPT returns following result:
 ===========================================
 
 Found     41 irreducible k-points:
 
 Following reciprocal coordinates:
            Coordinates               Weight
  0.000000  0.000000  0.000000      1.000000
  0.111111  0.000000  0.000000      2.000000
  0.222222  0.000000  0.000000      2.000000
  0.333333  0.000000  0.000000      2.000000
  0.444444  0.000000  0.000000      2.000000
  0.000000  0.111111  0.000000      2.000000
  0.111111  0.111111  0.000000      2.000000
  0.222222  0.111111  0.000000      2.000000
  0.333333  0.111111  0.000000      2.000000
  0.444444  0.111111  0.000000      2.000000
 -0.444444  0.111111  0.000000      2.000000
 -0.333333  0.111111  0.000000      2.000000
 -0.222222  0.111111  0.000000      2.000000
 -0.111111  0.111111  0.000000      2.000000
  0.000000  0.222222  0.000000      2.000000
  0.111111  0.222222  0.000000      2.000000
  0.222222  0.222222  0.000000      2.000000
  0.333333  0.222222  0.000000      2.000000
  0.444444  0.222222  0.000000      2.000000
 -0.444444  0.222222  0.000000      2.000000
 -0.333333  0.222222  0.000000      2.000000
 -0.222222  0.222222  0.000000      2.000000
 -0.111111  0.222222  0.000000      2.000000
  0.000000  0.333333  0.000000      2.000000
  0.111111  0.333333  0.000000      2.000000
  0.222222  0.333333  0.000000      2.000000
  0.333333  0.333333  0.000000      2.000000
  0.444444  0.333333  0.000000      2.000000
 -0.444444  0.333333  0.000000      2.000000
 -0.333333  0.333333  0.000000      2.000000
 -0.222222  0.333333  0.000000      2.000000
 -0.111111  0.333333  0.000000      2.000000
  0.000000  0.444444  0.000000      2.000000
  0.111111  0.444444  0.000000      2.000000
  0.222222  0.444444  0.000000      2.000000
  0.333333  0.444444  0.000000      2.000000
  0.444444  0.444444  0.000000      2.000000
 -0.444444  0.444444  0.000000      2.000000
 -0.333333  0.444444  0.000000      2.000000
 -0.222222  0.444444  0.000000      2.000000
 -0.111111  0.444444  0.000000      2.000000
 
 Following cartesian coordinates:
            Coordinates               Weight
  0.000000  0.000000  0.000000      1.000000
  0.011253  0.006497  0.000000      2.000000
  0.022505  0.012993  0.000000      2.000000
  0.033758  0.019490  0.000000      2.000000
  0.045011  0.025987  0.000000      2.000000
  0.000000  0.012993  0.000000      2.000000
  0.011253  0.019490  0.000000      2.000000
  0.022505  0.025987  0.000000      2.000000
  0.033758  0.032484  0.000000      2.000000
  0.045011  0.038980  0.000000      2.000000
 -0.045011 -0.012993  0.000000      2.000000
 -0.033758 -0.006497  0.000000      2.000000
 -0.022505 -0.000000  0.000000      2.000000
 -0.011253  0.006497  0.000000      2.000000
  0.000000  0.025987  0.000000      2.000000
  0.011253  0.032484  0.000000      2.000000
  0.022505  0.038980  0.000000      2.000000
  0.033758  0.045477  0.000000      2.000000
  0.045011  0.051974  0.000000      2.000000
 -0.045011  0.000000  0.000000      2.000000
 -0.033758  0.006497  0.000000      2.000000
 -0.022505  0.012993  0.000000      2.000000
 -0.011253  0.019490  0.000000      2.000000
  0.000000  0.038980  0.000000      2.000000
  0.011253  0.045477  0.000000      2.000000
  0.022505  0.051974  0.000000      2.000000
  0.033758  0.058470  0.000000      2.000000
  0.045011  0.064967  0.000000      2.000000
 -0.045011  0.012993  0.000000      2.000000
 -0.033758  0.019490  0.000000      2.000000
 -0.022505  0.025987  0.000000      2.000000
 -0.011253  0.032484  0.000000      2.000000
  0.000000  0.051974  0.000000      2.000000
  0.011253  0.058470  0.000000      2.000000
  0.022505  0.064967  0.000000      2.000000
  0.033758  0.071464  0.000000      2.000000
  0.045011  0.077961  0.000000      2.000000
 -0.045011  0.025987  0.000000      2.000000
 -0.033758  0.032484  0.000000      2.000000
 -0.022505  0.038980  0.000000      2.000000
 -0.011253  0.045477  0.000000      2.000000
 


--------------------------------------------------------------------------------------------------------




 Dimension of arrays:
   k-points           NKPTS =     41   k-points in BZ     NKDIM =     41   number of bands    NBANDS=    120
   number of dos      NEDOS =    301   number of ions     NIONS =     33
   non local maximal  LDIM  =      4   non local SUM 2l+1 LMDIM =      8
   total plane-waves  NPLWV = 777600
   max r-space proj   IRMAX =   3829   max aug-charges    IRDMAX=   5891
   dimension x,y,z NGX =    72 NGY =   72 NGZ =  150
   dimension x,y,z NGXF=   112 NGYF=  112 NGZF=  224
   support grid    NGXF=   112 NGYF=  112 NGZF=  224
   ions per type =              32   1
   NGX,Y,Z   is equivalent  to a cutoff of  12.12, 12.12, 12.47 a.u.
   NGXF,Y,Z  is equivalent  to a cutoff of  18.86, 18.86, 18.62 a.u.

 SYSTEM =  graphene_metal                          
 POSCAR =  graphene+Na                             

 Startparameter for this run:
   NWRITE =      2    write-flag & timer
   PREC   = high      normal or accurate (medium, high low for compatibility)
   ISTART =      1    job   : 0-new  1-cont  2-samecut
   ICHARG =      1    charge: 1-file 2-atom 10-const
   ISPIN  =      2    spin polarized calculation?
   LNONCOLLINEAR =      F non collinear calculations
   LSORBIT =      F    spin-orbit coupling
   INIWAV =      1    electr: 0-lowe 1-rand  2-diag
   LASPH  =      F    aspherical Exc in radial PAW
   METAGGA=      F    non-selfconsistent MetaGGA calc.

 Electronic Relaxation 1
   ENCUT  =  500.0 eV  36.75 Ry    6.06 a.u.  18.00 18.00 36.46*2*pi/ulx,y,z
   ENINI  =  500.0     initial cutoff
   ENAUG  =  644.9 eV  augmentation charge cutoff
   NELM   =    200;   NELMIN=  2; NELMDL=  0     # of ELM steps 
   EDIFF  = 0.1E-05   stopping-criterion for ELM
   LREAL  =      T    real-space projection
   NLSPLINE    = F    spline interpolate recip. space projectors
   LCOMPAT=      F    compatible to vasp.4.4
   GGA_COMPAT  = T    GGA compatible to vasp.4.4-vasp.4.6
   LMAXPAW     = -100 max onsite density
   LMAXMIX     =    2 max onsite mixed and CHGCAR
   VOSKOWN=      0    Vosko Wilk Nusair interpolation
   ROPT   =   -0.00040  -0.00040
 Ionic relaxation
   EDIFFG = 0.1E-04   stopping-criterion for IOM
   NSW    =      0    number of steps for IOM
   NBLOCK =      1;   KBLOCK =      1    inner block; outer block 
   IBRION =     -1    ionic relax: 0-MD 1-quasi-New 2-CG
   NFREE  =      0    steps in history (QN), initial steepest desc. (CG)
   ISIF   =      2    stress and relaxation
   IWAVPR =     10    prediction:  0-non 1-charg 2-wave 3-comb
   ISYM   =      2    0-nonsym 1-usesym 2-fastsym
   LCORR  =      T    Harris-Foulkes like correction to forces

   POTIM  = 0.5000    time-step for ionic-motion
   TEIN   =    0.0    initial temperature
   TEBEG  =    0.0;   TEEND  =   0.0 temperature during run
   SMASS  =  -3.00    Nose mass-parameter (am)
   estimated Nose-frequenzy (Omega)   =  0.10E-29 period in steps =****** mass=  -0.223E-26a.u.
   SCALEE = 1.0000    scale energy and forces
   NPACO  =    256;   APACO  = 16.0  distance and # of slots for P.C.
   PSTRESS=    0.0 pullay stress

  Mass of Ions in am
   POMASS =  12.01 22.99
  Ionic Valenz
   ZVAL   =   4.00  7.00
  Atomic Wigner-Seitz radii
   RWIGS  =  -1.00 -1.00
  virtual crystal weights 
   VCA    =   1.00  1.00
   NELECT =     135.0000    total number of electrons
   NUPDOWN=      -1.0000    fix difference up-down

 DOS related values:
   EMIN   =  10.00;   EMAX   =-10.00  energy-range for DOS
   EFERMI =   0.00
   ISMEAR =     0;   SIGMA  =   0.10  broadening in eV -4-tet -1-fermi 0-gaus

 Electronic relaxation 2 (details)
   IALGO  =     38    algorithm
   LDIAG  =      T    sub-space diagonalisation (order eigenvalues)
   LSUBROT=      F    optimize rotation matrix (better conditioning)
   TURBO    =      0    0=normal 1=particle mesh
   IRESTART =      0    0=no restart 2=restart with 2 vectors
   NREBOOT  =      0    no. of reboots
   NMIN     =      0    reboot dimension
   EREF     =   0.00    reference energy to select bands
   IMIX   =      4    mixing-type and parameters
     AMIX     =   0.40;   BMIX     =  1.00
     AMIX_MAG =   1.60;   BMIX_MAG =  1.00
     AMIN     =   0.10
     WC   =   100.;   INIMIX=   1;  MIXPRE=   1;  MAXMIX= -45

 Intra band minimization:
   WEIMIN = 0.0000     energy-eigenvalue tresh-hold
   EBREAK =  0.21E-08  absolut break condition
   DEPER  =   0.30     relativ break condition  

   TIME   =   0.40     timestep for ELM

  volume/ion in A,a.u.               =      51.17       345.34
  Fermi-wavevector in a.u.,A,eV,Ry     =   0.705229  1.332690  6.766832  0.497348
  Thomas-Fermi vector in A             =   1.790684
 
 Write flags
   LWAVE        =      T    write WAVECAR
   LDOWNSAMPLE  =      F    k-point downsampling of WAVECAR
   LCHARG       =      T    write CHGCAR
   LVTOT        =      F    write LOCPOT, total local potential
   LVHAR        =      T    write LOCPOT, Hartree potential only
   LELF         =      F    write electronic localiz. function (ELF)
   LORBIT       =     11    0 simple, 1 ext, 2 COOP (PROOUT), +10 PAW based schemes


 Dipole corrections
   LMONO  =      F    monopole corrections only (constant potential shift)
   LDIPOL =      T    correct potential (dipole corrections)
   IDIPOL =      3    1-x, 2-y, 3-z, 4-all directions 
   EPSILON=  1.0000000 bulk dielectric constant

 Exchange correlation treatment:
   GGA     =    --    GGA type
   LEXCH   =     8    internal setting for exchange type
   VOSKOWN=      0    Vosko Wilk Nusair interpolation
   LHFCALC =     F    Hartree Fock is set to
   LHFONE  =     F    Hartree Fock one center treatment
   AEXX    =    0.0000 exact exchange contribution

 Linear response parameters
   LEPSILON=     F    determine dielectric tensor
   LRPA    =     F    only Hartree local field effects (RPA)
   LNABLA  =     F    use nabla operator in PAW spheres
   LVEL    =     F    velocity operator in full k-point grid
   LINTERFAST=   F  fast interpolation
   KINTER  =     0    interpolate to denser k-point grid
   CSHIFT  =0.1000    complex shift for real part using Kramers Kronig
   OMEGAMAX=  -1.0    maximum frequency
   DEG_THRESHOLD= 0.2000000E-02 threshold for treating states as degnerate
   RTIME   =   -0.100 relaxation time in fs
  (WPLASMAI=    0.000 imaginary part of plasma frequency in eV, 0.658/RTIME)
   DFIELD  = 0.0000000 0.0000000 0.0000000 field for delta impulse in time
 
 Orbital magnetization related:
   ORBITALMAG=     F  switch on orbital magnetization
   LCHIMAG   =     F  perturbation theory with respect to B field
   DQ        =  0.001000  dq finite difference perturbation B field
   LLRAUG    =     F  two centre corrections for induced B field



--------------------------------------------------------------------------------------------------------


 Static calculation
 charge density and potential will be updated during run
 spin polarized calculation
 Variant of blocked Davidson
 Davidson routine will perform the subspace rotation
 perform sub-space diagonalisation
    after iterative eigenvector-optimisation
 modified Broyden-mixing scheme, WC =      100.0
 initial mixing is a Kerker type mixing with AMIX =  0.4000 and BMIX =      1.0000
 Hartree-type preconditioning will be used
 using additional bands           52
 real space projection scheme for non local part
 use partial core corrections
 calculate Harris-corrections to forces 
   (improved forces if not selfconsistent)
 use gradient corrections 
 use of overlap-Matrix (Vanderbilt PP)
 Gauss-broadening in eV      SIGMA  =   0.10


--------------------------------------------------------------------------------------------------------


  energy-cutoff  :      500.00
  volume of cell :     1688.76
      direct lattice vectors                 reciprocal lattice vectors
     9.874235153  0.000000000  0.000000000     0.101273667  0.058470379  0.000000000
    -4.937117577  8.551338486  0.000000000     0.000000000  0.116940757  0.000000000
     0.000000000  0.000000000 20.000000000     0.000000000  0.000000000  0.050000000

  length of vectors
     9.874235153  9.874235153 20.000000000     0.116940757  0.116940757  0.050000000


 
 old parameters found on file WAVECAR:
  energy-cutoff  :      500.00
  volume of cell :     1688.76
      direct lattice vectors                 reciprocal lattice vectors
     9.874235153  0.000000000  0.000000000     0.101273667  0.058470379  0.000000000
    -4.937117577  8.551338486  0.000000000     0.000000000  0.116940757  0.000000000
     0.000000000  0.000000000 20.000000000     0.000000000  0.000000000  0.050000000

  length of vectors

 
 k-points in units of 2pi/SCALE and weight: Automatic mesh                          
   0.00000000  0.00000000  0.00000000       0.012
   0.01125263  0.00649671  0.00000000       0.025
   0.02250526  0.01299342  0.00000000       0.025
   0.03375789  0.01949013  0.00000000       0.025
   0.04501052  0.02598683  0.00000000       0.025
   0.00000000  0.01299342  0.00000000       0.025
   0.01125263  0.01949013  0.00000000       0.025
   0.02250526  0.02598683  0.00000000       0.025
   0.03375789  0.03248354  0.00000000       0.025
   0.04501052  0.03898025  0.00000000       0.025
  -0.04501052 -0.01299342  0.00000000       0.025
  -0.03375789 -0.00649671  0.00000000       0.025
  -0.02250526 -0.00000000  0.00000000       0.025
  -0.01125263  0.00649671  0.00000000       0.025
   0.00000000  0.02598683  0.00000000       0.025
   0.01125263  0.03248354  0.00000000       0.025
   0.02250526  0.03898025  0.00000000       0.025
   0.03375789  0.04547696  0.00000000       0.025
   0.04501052  0.05197367  0.00000000       0.025
  -0.04501052  0.00000000  0.00000000       0.025
  -0.03375789  0.00649671  0.00000000       0.025
  -0.02250526  0.01299342  0.00000000       0.025
  -0.01125263  0.01949013  0.00000000       0.025
   0.00000000  0.03898025  0.00000000       0.025
   0.01125263  0.04547696  0.00000000       0.025
   0.02250526  0.05197367  0.00000000       0.025
   0.03375789  0.05847038  0.00000000       0.025
   0.04501052  0.06496709  0.00000000       0.025
  -0.04501052  0.01299342  0.00000000       0.025
  -0.03375789  0.01949013  0.00000000       0.025
  -0.02250526  0.02598683  0.00000000       0.025
  -0.01125263  0.03248354  0.00000000       0.025
   0.00000000  0.05197367  0.00000000       0.025
   0.01125263  0.05847038  0.00000000       0.025
   0.02250526  0.06496709  0.00000000       0.025
   0.03375789  0.07146380  0.00000000       0.025
   0.04501052  0.07796050  0.00000000       0.025
  -0.04501052  0.02598683  0.00000000       0.025
  -0.03375789  0.03248354  0.00000000       0.025
  -0.02250526  0.03898025  0.00000000       0.025
  -0.01125263  0.04547696  0.00000000       0.025
 
 k-points in reciprocal lattice and weights: Automatic mesh                          
   0.00000000  0.00000000  0.00000000       0.012
   0.11111111  0.00000000  0.00000000       0.025
   0.22222222  0.00000000  0.00000000       0.025
   0.33333333  0.00000000  0.00000000       0.025
   0.44444444  0.00000000  0.00000000       0.025
   0.00000000  0.11111111  0.00000000       0.025
   0.11111111  0.11111111  0.00000000       0.025
   0.22222222  0.11111111  0.00000000       0.025
   0.33333333  0.11111111  0.00000000       0.025
   0.44444444  0.11111111  0.00000000       0.025
  -0.44444444  0.11111111  0.00000000       0.025
  -0.33333333  0.11111111  0.00000000       0.025
  -0.22222222  0.11111111  0.00000000       0.025
  -0.11111111  0.11111111  0.00000000       0.025
   0.00000000  0.22222222  0.00000000       0.025
   0.11111111  0.22222222  0.00000000       0.025
   0.22222222  0.22222222  0.00000000       0.025
   0.33333333  0.22222222  0.00000000       0.025
   0.44444444  0.22222222  0.00000000       0.025
  -0.44444444  0.22222222  0.00000000       0.025
  -0.33333333  0.22222222  0.00000000       0.025
  -0.22222222  0.22222222  0.00000000       0.025
  -0.11111111  0.22222222  0.00000000       0.025
   0.00000000  0.33333333  0.00000000       0.025
   0.11111111  0.33333333  0.00000000       0.025
   0.22222222  0.33333333  0.00000000       0.025
   0.33333333  0.33333333  0.00000000       0.025
   0.44444444  0.33333333  0.00000000       0.025
  -0.44444444  0.33333333  0.00000000       0.025
  -0.33333333  0.33333333  0.00000000       0.025
  -0.22222222  0.33333333  0.00000000       0.025
  -0.11111111  0.33333333  0.00000000       0.025
   0.00000000  0.44444444  0.00000000       0.025
   0.11111111  0.44444444  0.00000000       0.025
   0.22222222  0.44444444  0.00000000       0.025
   0.33333333  0.44444444  0.00000000       0.025
   0.44444444  0.44444444  0.00000000       0.025
  -0.44444444  0.44444444  0.00000000       0.025
  -0.33333333  0.44444444  0.00000000       0.025
  -0.22222222  0.44444444  0.00000000       0.025
  -0.11111111  0.44444444  0.00000000       0.025
 
 position of ions in fractional coordinates (direct lattice) 
   0.16647518  0.08315087  0.50000000
   0.41667537  0.08315076  0.49997437
   0.66671650  0.08335870  0.50000000
   0.91664183  0.08335826  0.50008616
   0.16610479  0.33305197  0.49978934
   0.41637835  0.33275755  0.49915571
   0.66694816  0.33305189  0.50000000
   0.91664144  0.33328375  0.50010917
   0.16647517  0.58332486  0.49999609
   0.41637829  0.58362172  0.49918330
   0.66724248  0.58362164  0.49915816
   0.91684911  0.58332457  0.49997861
   0.16666649  0.83333333  0.50000057
   0.41667496  0.83352477  0.49998966
   0.66694814  0.83389548  0.49978569
   0.91684906  0.83352477  0.50000000
   0.08315010  0.16647490  0.50000000
   0.33305307  0.16610452  0.49977525
   0.58332426  0.16647545  0.50003825
   0.83333319  0.16666663  0.50003104
   0.08315065  0.41667550  0.50002052
   0.33275681  0.41637753  0.49916998
   0.58362013  0.41638001  0.49921548
   0.83352450  0.41667579  0.50006388
   0.08335882  0.66671700  0.50000000
   0.33305140  0.66694854  0.49979251
   0.58362234  0.66724286  0.49917347
   0.83389569  0.66694694  0.49977368
   0.08335836  0.91664160  0.50007978
   0.33328300  0.91664114  0.50000000
   0.58332475  0.91684964  0.49999068
   0.83352513  0.91684991  0.50000000
   0.50000000  0.50000000  0.61493496
 
 position of ions in cartesian coordinates  (Angst):
   1.23328951  0.71105121 10.00000000
   3.70382555  0.71105027  9.99948738
   6.17176375  0.71282850 10.00000000
   8.63958742  0.71282467 10.00172318
  -0.00415897  2.84804013  9.99578683
   2.46855454  2.84552248  9.98311429
   4.94128660  2.84803941 10.00000000
   7.40567214  2.85002212 10.00218346
  -1.23612840  4.98820832  9.99992172
   1.23000808  4.99074687  9.98366595
   3.70710049  4.99074623  9.98316313
   6.17324176  4.98820582  9.99957230
  -2.46856053  7.12611539 10.00001147
  -0.00086325  7.12775246  9.99979321
   2.46856271  7.13092251  9.99571371
   4.93797349  7.12775241 10.00000000
  -0.00086248  1.42358319 10.00000000
   2.46856680  1.42041601  9.99550506
   4.93797205  1.42358793 10.00076492
   7.40567514  1.42522273 10.00062070
  -1.23612688  3.56313323 10.00041033
   1.23001415  3.56058518  9.98339961
   3.70708538  3.56060636  9.98430964
   6.17323956  3.56313574 10.00127762
  -2.46855564  5.70132272 10.00000000
  -0.00417549  5.70330273  9.99585014
   2.46856781  5.70581955  9.98346948
   4.94128669  5.70328905  9.99547356
  -3.70246725  7.83851256 10.00159564
  -1.23465039  7.83850862 10.00000000
   1.23329130  7.84029160  9.99981369
   3.70382735  7.84029390 10.00000000
   2.46855879  4.27566924 12.29869923
 


--------------------------------------------------------------------------------------------------------


 k-point  1 :   0.0000 0.0000 0.0000  plane waves:   42745
 k-point  2 :   0.1111 0.0000 0.0000  plane waves:   42799
 k-point  3 :   0.2222 0.0000 0.0000  plane waves:   42837
 k-point  4 :   0.3333 0.0000 0.0000  plane waves:   42905
 k-point  5 :   0.4444 0.0000 0.0000  plane waves:   42894
 k-point  6 :   0.0000 0.1111 0.0000  plane waves:   42799
 k-point  7 :   0.1111 0.1111 0.0000  plane waves:   42888
 k-point  8 :   0.2222 0.1111 0.0000  plane waves:   42878
 k-point  9 :   0.3333 0.1111 0.0000  plane waves:   42876
 k-point 10 :   0.4444 0.1111 0.0000  plane waves:   42906
 k-point 11 :  -0.4444 0.1111 0.0000  plane waves:   42876
 k-point 12 :  -0.3333 0.1111 0.0000  plane waves:   42878
 k-point 13 :  -0.2222 0.1111 0.0000  plane waves:   42888
 k-point 14 :  -0.1111 0.1111 0.0000  plane waves:   42799
 k-point 15 :   0.0000 0.2222 0.0000  plane waves:   42837
 k-point 16 :   0.1111 0.2222 0.0000  plane waves:   42878
 k-point 17 :   0.2222 0.2222 0.0000  plane waves:   42886
 k-point 18 :   0.3333 0.2222 0.0000  plane waves:   42887
 k-point 19 :   0.4444 0.2222 0.0000  plane waves:   42887
 k-point 20 :  -0.4444 0.2222 0.0000  plane waves:   42886
 k-point 21 :  -0.3333 0.2222 0.0000  plane waves:   42878
 k-point 22 :  -0.2222 0.2222 0.0000  plane waves:   42837
 k-point 23 :  -0.1111 0.2222 0.0000  plane waves:   42888
 k-point 24 :   0.0000 0.3333 0.0000  plane waves:   42905
 k-point 25 :   0.1111 0.3333 0.0000  plane waves:   42876
 k-point 26 :   0.2222 0.3333 0.0000  plane waves:   42887
 k-point 27 :   0.3333 0.3333 0.0000  plane waves:   42816
 k-point 28 :   0.4444 0.3333 0.0000  plane waves:   42887
 k-point 29 :  -0.4444 0.3333 0.0000  plane waves:   42876
 k-point 30 :  -0.3333 0.3333 0.0000  plane waves:   42905
 k-point 31 :  -0.2222 0.3333 0.0000  plane waves:   42878
 k-point 32 :  -0.1111 0.3333 0.0000  plane waves:   42878
 k-point 33 :   0.0000 0.4444 0.0000  plane waves:   42894
 k-point 34 :   0.1111 0.4444 0.0000  plane waves:   42906
 k-point 35 :   0.2222 0.4444 0.0000  plane waves:   42887
 k-point 36 :   0.3333 0.4444 0.0000  plane waves:   42887
 k-point 37 :   0.4444 0.4444 0.0000  plane waves:   42906
 k-point 38 :  -0.4444 0.4444 0.0000  plane waves:   42894
 k-point 39 :  -0.3333 0.4444 0.0000  plane waves:   42876
 k-point 40 :  -0.2222 0.4444 0.0000  plane waves:   42886
 k-point 41 :  -0.1111 0.4444 0.0000  plane waves:   42876

 maximum and minimum number of plane-waves per node :     42906    42745

 maximum number of plane-waves:     42906
 maximum index in each direction: 
   IXMAX=   18   IYMAX=   18   IZMAX=   36
   IXMIN=  -18   IYMIN=  -18   IZMIN=  -36


 serial   3D FFT for wavefunctions
 parallel 3D FFT for charge:
    minimum data exchange during FFTs selected (reduces bandwidth)


 total amount of memory used by VASP MPI-rank0   399237. kBytes
=======================================================================

   base      :      30000. kBytes
   nonlr-proj:       5794. kBytes
   fftplans  :       7527. kBytes
   grid      :      72480. kBytes
   one-center:        202. kBytes
   wavefun   :     283234. kBytes
 
     INWAV:  cpu time   31.0073: real time   31.2785
 Broyden mixing: mesh for mixing (old mesh)
   NGX = 37   NGY = 37   NGZ = 73
  (NGX  =112   NGY  =112   NGZ  =224)
  gives a total of  99937 points

 initial charge density was supplied:
 number of electron     134.9999915 magnetization      -0.2870733
 keeping initial charge density in first step


--------------------------------------------------------------------------------------------------------


 Maximum index for non-local projection operator         3679
 Maximum index for augmentation-charges          188 (set IRDMAX)


--------------------------------------------------------------------------------------------------------


 First call to EWALD:  gamma=   0.149
 Maximum number of real-space cells 4x 4x 2
 Maximum number of reciprocal cells 2x 2x 4

    FEWALD:  cpu time    0.0030: real time    0.0023


--------------------------------------- Iteration      1(   1)  ---------------------------------------


    POTLOK:  cpu time    0.4119: real time    0.4182
    SETDIJ:  cpu time    0.0140: real time    0.0137
     EDDAV:  cpu time  175.6693: real time  175.9637
       DOS:  cpu time    0.0030: real time    0.0039
    CHARGE:  cpu time   10.6144: real time   10.6427
    MIXING:  cpu time    0.0090: real time    0.0087
    --------------------------------------------
      LOOP:  cpu time  186.7216: real time  187.0510

 eigenvalue-minimisations  : 17880
 total energy-change (2. order) :-0.2957985E+03  (-0.6345462E-07)
 number of electron     134.9999915 magnetization      -0.2906944
 augmentation part        7.5596061 magnetization       0.0222105

 DIPCOR: dipole corrections for dipol
 direction  3 min pos    21,
 dipolmoment           0.000000      0.000000     -0.585315 electrons x Angstroem
 Tr[quadrupol]     -2317.746786

 energy correction for charged system         0.000000 eV
 dipol+quadrupol energy correction           -0.018356 eV
 added-field ion interaction        -14.139652 eV  (added to PSCEN)


 Broyden mixing:
  rms(total) = 0.53397E-02    rms(broyden)= 0.53382E-02
  rms(prec ) = 0.85351E-02
  weight for this iteration     100.00

 Free energy of the ion-electron system (eV)
  ---------------------------------------------------
  alpha Z        PSCENC =        41.43241275
  Ewald energy   TEWEN  =     21840.33001928
  -Hartree energ DENC   =    -26401.20916086
  -exchange      EXHF   =         0.00000000
  -V(xc)+E(xc)   XCENC  =       485.57576784
  PAW double counting   =      2689.20727064    -2819.12307877
  entropy T*S    EENTRO =        -0.03751577
  eigenvalues    EBANDS =     -1606.76549161
  atomic energy  EATOM  =      5474.79130437
  Solvation  Ediel_sol  =         0.00000000
  ---------------------------------------------------
  free energy    TOTEN  =      -295.79847213 eV

  energy without entropy =     -295.76095636  energy(sigma->0) =     -295.77971424


--------------------------------------------------------------------------------------------------------




--------------------------------------- Iteration      1(   2)  ---------------------------------------


    POTLOK:  cpu time    0.4049: real time    0.4068
    SETDIJ:  cpu time    0.0140: real time    0.0139
     EDDAV:  cpu time  196.9341: real time  197.2645
       DOS:  cpu time    0.0040: real time    0.0038
    CHARGE:  cpu time   10.6864: real time   10.7015
    MIXING:  cpu time    0.0090: real time    0.0094
    --------------------------------------------
      LOOP:  cpu time  208.0524: real time  208.4000

 eigenvalue-minimisations  : 20952
 total energy-change (2. order) : 0.2196979E-01  (-0.1387291E-02)
 number of electron     134.9999915 magnetization      -0.2904920
 augmentation part        7.5614493 magnetization      -0.0000631

 DIPCOR: dipole corrections for dipol
 direction  3 min pos    17,
 dipolmoment           0.000000      0.000000     -0.574761 electrons x Angstroem
 Tr[quadrupol]     -2318.157123

 energy correction for charged system         0.000000 eV
 dipol+quadrupol energy correction           -0.017700 eV
 added-field ion interaction        -10.915143 eV  (added to PSCEN)


 Broyden mixing:
  rms(total) = 0.23627E-02    rms(broyden)= 0.23605E-02
  rms(prec ) = 0.25304E-02
  weight for this iteration     100.00

 eigenvalues of (default mixing * dielectric matrix)
  average eigenvalue GAMMA=   0.6270
  0.6270

 Free energy of the ion-electron system (eV)
  ---------------------------------------------------
  alpha Z        PSCENC =        44.65757770
  Ewald energy   TEWEN  =     21840.33001928
  -Hartree energ DENC   =    -26400.32512555
  -exchange      EXHF   =         0.00000000
  -V(xc)+E(xc)   XCENC  =       485.57592047
  PAW double counting   =      2689.07360293    -2819.00125312
  entropy T*S    EENTRO =        -0.03706230
  eigenvalues    EBANDS =     -1610.84148611
  atomic energy  EATOM  =      5474.79130437
  Solvation  Ediel_sol  =         0.00000000
  ---------------------------------------------------
  free energy    TOTEN  =      -295.77650233 eV

  energy without entropy =     -295.73944003  energy(sigma->0) =     -295.75797118


--------------------------------------------------------------------------------------------------------




--------------------------------------- Iteration      1(   3)  ---------------------------------------


    POTLOK:  cpu time    0.4069: real time    0.4071
    SETDIJ:  cpu time    0.0140: real time    0.0137
     EDDAV:  cpu time  198.4928: real time  198.8173
       DOS:  cpu time    0.0040: real time    0.0039
    CHARGE:  cpu time   10.6444: real time   10.7261
    MIXING:  cpu time    0.0100: real time    0.0119
    --------------------------------------------
      LOOP:  cpu time  209.5721: real time  209.9799

 eigenvalue-minimisations  : 21168
 total energy-change (2. order) :-0.1499088E-01  (-0.4534118E-03)
 number of electron     134.9999915 magnetization      -0.2904893
 augmentation part        7.5608391 magnetization       0.0009223

 DIPCOR: dipole corrections for dipol
 direction  3 min pos    15,
 dipolmoment           0.000000      0.000000     -0.575939 electrons x Angstroem
 Tr[quadrupol]     -2318.361693

 energy correction for charged system         0.000000 eV
 dipol+quadrupol energy correction           -0.017773 eV
 added-field ion interaction         -9.449678 eV  (added to PSCEN)


 Broyden mixing:
  rms(total) = 0.98988E-03    rms(broyden)= 0.98967E-03
  rms(prec ) = 0.10754E-02
  weight for this iteration     100.00

 eigenvalues of (default mixing * dielectric matrix)
  average eigenvalue GAMMA=   0.6401
  0.6401  0.6401

 Free energy of the ion-electron system (eV)
  ---------------------------------------------------
  alpha Z        PSCENC =        46.12297009
  Ewald energy   TEWEN  =     21840.33001928
  -Hartree energ DENC   =    -26400.41647458
  -exchange      EXHF   =         0.00000000
  -V(xc)+E(xc)   XCENC  =       485.56980592
  PAW double counting   =      2689.13052956    -2819.05976908
  entropy T*S    EENTRO =        -0.03709996
  eigenvalues    EBANDS =     -1612.22277882
  atomic energy  EATOM  =      5474.79130437
  Solvation  Ediel_sol  =         0.00000000
  ---------------------------------------------------
  free energy    TOTEN  =      -295.79149322 eV

  energy without entropy =     -295.75439326  energy(sigma->0) =     -295.77294324


--------------------------------------------------------------------------------------------------------




--------------------------------------- Iteration      1(   4)  ---------------------------------------


    POTLOK:  cpu time    0.4079: real time    0.4086
    SETDIJ:  cpu time    0.0130: real time    0.0139
     EDDAV:  cpu time  213.8365: real time  214.1645
       DOS:  cpu time    0.0040: real time    0.0038
    CHARGE:  cpu time   10.6044: real time   10.6266
    MIXING:  cpu time    0.0100: real time    0.0097
    --------------------------------------------
      LOOP:  cpu time  224.8758: real time  225.2270

 eigenvalue-minimisations  : 23208
 total energy-change (2. order) :-0.2788755E-02  (-0.2162710E-04)
 number of electron     134.9999915 magnetization      -0.2904733
 augmentation part        7.5609036 magnetization       0.0008219

 DIPCOR: dipole corrections for dipol
 direction  3 min pos    14,
 dipolmoment           0.000000      0.000000     -0.576055 electrons x Angstroem
 Tr[quadrupol]     -2318.463908

 energy correction for charged system         0.000000 eV
 dipol+quadrupol energy correction           -0.017780 eV
 added-field ion interaction         -8.707529 eV  (added to PSCEN)


 Broyden mixing:
  rms(total) = 0.46695E-03    rms(broyden)= 0.46690E-03
  rms(prec ) = 0.56556E-03
  weight for this iteration     100.00

 eigenvalues of (default mixing * dielectric matrix)
  average eigenvalue GAMMA=   0.8175
  0.9280  0.9280  0.5966

 Free energy of the ion-electron system (eV)
  ---------------------------------------------------
  alpha Z        PSCENC =        46.86511222
  Ewald energy   TEWEN  =     21840.33001928
  -Hartree energ DENC   =    -26400.41559660
  -exchange      EXHF   =         0.00000000
  -V(xc)+E(xc)   XCENC  =       485.56850680
  PAW double counting   =      2689.14560028    -2819.07002121
  entropy T*S    EENTRO =        -0.03709737
  eigenvalues    EBANDS =     -1612.97210973
  atomic energy  EATOM  =      5474.79130437
  Solvation  Ediel_sol  =         0.00000000
  ---------------------------------------------------
  free energy    TOTEN  =      -295.79428197 eV

  energy without entropy =     -295.75718460  energy(sigma->0) =     -295.77573329


--------------------------------------------------------------------------------------------------------




--------------------------------------- Iteration      1(   5)  ---------------------------------------


    POTLOK:  cpu time    0.4079: real time    0.4086
    SETDIJ:  cpu time    0.0130: real time    0.0137
     EDDAV:  cpu time  196.8491: real time  197.1958
       DOS:  cpu time    0.0040: real time    0.0039
    CHARGE:  cpu time   10.6734: real time   10.6831
    MIXING:  cpu time    0.0090: real time    0.0098
    --------------------------------------------
      LOOP:  cpu time  207.9574: real time  208.3149

 eigenvalue-minimisations  : 20904
 total energy-change (2. order) :-0.2275209E-02  (-0.4420655E-04)
 number of electron     134.9999915 magnetization      -0.2904226
 augmentation part        7.5608732 magnetization       0.0006564

 DIPCOR: dipole corrections for dipol
 direction  3 min pos    14,
 dipolmoment           0.000000      0.000000     -0.576033 electrons x Angstroem
 Tr[quadrupol]     -2318.462753

 energy correction for charged system         0.000000 eV
 dipol+quadrupol energy correction           -0.017778 eV
 added-field ion interaction         -8.707199 eV  (added to PSCEN)


 Broyden mixing:
  rms(total) = 0.21974E-03    rms(broyden)= 0.21968E-03
  rms(prec ) = 0.31137E-03
  weight for this iteration     100.00

 eigenvalues of (default mixing * dielectric matrix)
  average eigenvalue GAMMA=   0.9977
  1.3076  1.3076  0.6878  0.6878

 Free energy of the ion-electron system (eV)
  ---------------------------------------------------
  alpha Z        PSCENC =        46.86544311
  Ewald energy   TEWEN  =     21840.33001928
  -Hartree energ DENC   =    -26400.40591414
  -exchange      EXHF   =         0.00000000
  -V(xc)+E(xc)   XCENC  =       485.56810884
  PAW double counting   =      2689.15922561    -2819.08012950
  entropy T*S    EENTRO =        -0.03709227
  eigenvalues    EBANDS =     -1612.98752248
  atomic energy  EATOM  =      5474.79130437
  Solvation  Ediel_sol  =         0.00000000
  ---------------------------------------------------
  free energy    TOTEN  =      -295.79655718 eV

  energy without entropy =     -295.75946491  energy(sigma->0) =     -295.77801105


--------------------------------------------------------------------------------------------------------




--------------------------------------- Iteration      1(   6)  ---------------------------------------


    POTLOK:  cpu time    0.4069: real time    0.4072
    SETDIJ:  cpu time    0.0130: real time    0.0136
     EDDAV:  cpu time  192.7047: real time  193.0318
       DOS:  cpu time    0.0030: real time    0.0037
    CHARGE:  cpu time   10.6154: real time   10.6331
    MIXING:  cpu time    0.0110: real time    0.0108
    --------------------------------------------
      LOOP:  cpu time  203.7530: real time  204.1002

 eigenvalue-minimisations  : 20328
 total energy-change (2. order) :-0.9205607E-03  (-0.2003456E-04)
 number of electron     134.9999915 magnetization      -0.2903443
 augmentation part        7.5609044 magnetization       0.0003895

 DIPCOR: dipole corrections for dipol
 direction  3 min pos    14,
 dipolmoment           0.000000      0.000000     -0.575922 electrons x Angstroem
 Tr[quadrupol]     -2318.461568

 energy correction for charged system         0.000000 eV
 dipol+quadrupol energy correction           -0.017772 eV
 added-field ion interaction         -8.705510 eV  (added to PSCEN)


 Broyden mixing:
  rms(total) = 0.12128E-03    rms(broyden)= 0.12124E-03
  rms(prec ) = 0.17986E-03
  weight for this iteration     100.00

 eigenvalues of (default mixing * dielectric matrix)
  average eigenvalue GAMMA=   1.0347
  1.5237  1.5237  0.7630  0.7630  0.6002

 Free energy of the ion-electron system (eV)
  ---------------------------------------------------
  alpha Z        PSCENC =        46.86713908
  Ewald energy   TEWEN  =     21840.33001928
  -Hartree energ DENC   =    -26400.38180669
  -exchange      EXHF   =         0.00000000
  -V(xc)+E(xc)   XCENC  =       485.56819830
  PAW double counting   =      2689.15729572    -2819.07569871
  entropy T*S    EENTRO =        -0.03708315
  eigenvalues    EBANDS =     -1613.01684594
  atomic energy  EATOM  =      5474.79130437
  Solvation  Ediel_sol  =         0.00000000
  ---------------------------------------------------
  free energy    TOTEN  =      -295.79747774 eV

  energy without entropy =     -295.76039459  energy(sigma->0) =     -295.77893616


--------------------------------------------------------------------------------------------------------




--------------------------------------- Iteration      1(   7)  ---------------------------------------


    POTLOK:  cpu time    0.4059: real time    0.4072
    SETDIJ:  cpu time    0.0140: real time    0.0137
     EDDAV:  cpu time  193.7425: real time  194.0959
       DOS:  cpu time    0.0040: real time    0.0038
    CHARGE:  cpu time   10.5844: real time   10.6021
    MIXING:  cpu time    0.0110: real time    0.0114
    --------------------------------------------
      LOOP:  cpu time  204.7629: real time  205.1341

 eigenvalue-minimisations  : 20400
 total energy-change (2. order) :-0.2895673E-03  (-0.2241068E-05)
 number of electron     134.9999915 magnetization      -0.2901990
 augmentation part        7.5609089 magnetization       0.0005471

 DIPCOR: dipole corrections for dipol
 direction  3 min pos    15,
 dipolmoment           0.000000      0.000000     -0.575846 electrons x Angstroem
 Tr[quadrupol]     -2318.358084

 energy correction for charged system         0.000000 eV
 dipol+quadrupol energy correction           -0.017767 eV
 added-field ion interaction         -9.448164 eV  (added to PSCEN)


 Broyden mixing:
  rms(total) = 0.88823E-04    rms(broyden)= 0.88811E-04
  rms(prec ) = 0.14424E-03
  weight for this iteration     100.00

 eigenvalues of (default mixing * dielectric matrix)
  average eigenvalue GAMMA=   1.1609
  1.9262  1.9262  0.8937  0.8937  0.6627  0.6627

 Free energy of the ion-electron system (eV)
  ---------------------------------------------------
  alpha Z        PSCENC =        46.12449012
  Ewald energy   TEWEN  =     21840.33001928
  -Hartree energ DENC   =    -26400.36669878
  -exchange      EXHF   =         0.00000000
  -V(xc)+E(xc)   XCENC  =       485.56808492
  PAW double counting   =      2689.14969316    -2819.06813216
  entropy T*S    EENTRO =        -0.03708262
  eigenvalues    EBANDS =     -1612.28944559
  atomic energy  EATOM  =      5474.79130437
  Solvation  Ediel_sol  =         0.00000000
  ---------------------------------------------------
  free energy    TOTEN  =      -295.79776731 eV

  energy without entropy =     -295.76068468  energy(sigma->0) =     -295.77922600


--------------------------------------------------------------------------------------------------------




--------------------------------------- Iteration      1(   8)  ---------------------------------------


    POTLOK:  cpu time    0.4069: real time    0.4071
    SETDIJ:  cpu time    0.0130: real time    0.0137
     EDDAV:  cpu time  182.2873: real time  182.5715
       DOS:  cpu time    0.0030: real time    0.0037
    CHARGE:  cpu time   10.7114: real time   10.7267
    MIXING:  cpu time    0.0120: real time    0.0188
    --------------------------------------------
      LOOP:  cpu time  193.4336: real time  193.7415

 eigenvalue-minimisations  : 18840
 total energy-change (2. order) :-0.2550611E-03  (-0.1924543E-05)
 number of electron     134.9999915 magnetization      -0.2901122
 augmentation part        7.5609006 magnetization       0.0005961

 DIPCOR: dipole corrections for dipol
 direction  3 min pos    15,
 dipolmoment           0.000000      0.000000     -0.575782 electrons x Angstroem
 Tr[quadrupol]     -2318.356971

 energy correction for charged system         0.000000 eV
 dipol+quadrupol energy correction           -0.017763 eV
 added-field ion interaction         -9.447107 eV  (added to PSCEN)


 Broyden mixing:
  rms(total) = 0.49959E-04    rms(broyden)= 0.49950E-04
  rms(prec ) = 0.92582E-04
  weight for this iteration     100.00

 eigenvalues of (default mixing * dielectric matrix)
  average eigenvalue GAMMA=   1.2300
  2.5053  2.1491  0.9570  0.9570  0.6895  0.6761  0.6761

 Free energy of the ion-electron system (eV)
  ---------------------------------------------------
  alpha Z        PSCENC =        46.12555033
  Ewald energy   TEWEN  =     21840.33001928
  -Hartree energ DENC   =    -26400.33406189
  -exchange      EXHF   =         0.00000000
  -V(xc)+E(xc)   XCENC  =       485.56795219
  PAW double counting   =      2689.13704863    -2819.05619704
  entropy T*S    EENTRO =        -0.03708134
  eigenvalues    EBANDS =     -1612.32255690
  atomic energy  EATOM  =      5474.79130437
  Solvation  Ediel_sol  =         0.00000000
  ---------------------------------------------------
  free energy    TOTEN  =      -295.79802237 eV

  energy without entropy =     -295.76094103  energy(sigma->0) =     -295.77948170


--------------------------------------------------------------------------------------------------------




--------------------------------------- Iteration      1(   9)  ---------------------------------------


    POTLOK:  cpu time    0.4059: real time    0.4062
    SETDIJ:  cpu time    0.0130: real time    0.0135
     EDDAV:  cpu time  194.4844: real time  194.7999
       DOS:  cpu time    0.0030: real time    0.0037
    CHARGE:  cpu time   10.6194: real time   10.6342
    MIXING:  cpu time    0.0130: real time    0.0130
    --------------------------------------------
      LOOP:  cpu time  205.5388: real time  205.8705

 eigenvalue-minimisations  : 20472
 total energy-change (2. order) :-0.9209106E-04  (-0.4555294E-06)
 number of electron     134.9999915 magnetization      -0.2900060
 augmentation part        7.5609121 magnetization       0.0005448

 DIPCOR: dipole corrections for dipol
 direction  3 min pos    16,
 dipolmoment           0.000000      0.000000     -0.575680 electrons x Angstroem
 Tr[quadrupol]     -2318.253396

 energy correction for charged system         0.000000 eV
 dipol+quadrupol energy correction           -0.017757 eV
 added-field ion interaction        -10.189016 eV  (added to PSCEN)


 Broyden mixing:
  rms(total) = 0.38393E-04    rms(broyden)= 0.38385E-04
  rms(prec ) = 0.62964E-04
  weight for this iteration     100.00

 eigenvalues of (default mixing * dielectric matrix)
  average eigenvalue GAMMA=   1.2688
  2.7625  2.4213  1.1031  1.1031  0.7613  0.7613  0.6191  0.6191

 Free energy of the ion-electron system (eV)
  ---------------------------------------------------
  alpha Z        PSCENC =        45.38364816
  Ewald energy   TEWEN  =     21840.33001928
  -Hartree energ DENC   =    -26400.31206339
  -exchange      EXHF   =         0.00000000
  -V(xc)+E(xc)   XCENC  =       485.56783715
  PAW double counting   =      2689.13277316    -2819.05201747
  entropy T*S    EENTRO =        -0.03707764
  eigenvalues    EBANDS =     -1611.60253807
  atomic energy  EATOM  =      5474.79130437
  Solvation  Ediel_sol  =         0.00000000
  ---------------------------------------------------
  free energy    TOTEN  =      -295.79811446 eV

  energy without entropy =     -295.76103682  energy(sigma->0) =     -295.77957564


--------------------------------------------------------------------------------------------------------




--------------------------------------- Iteration      1(  10)  ---------------------------------------


    POTLOK:  cpu time    0.4059: real time    0.4064
    SETDIJ:  cpu time    0.0140: real time    0.0138
     EDDAV:  cpu time  184.0600: real time  184.3449
       DOS:  cpu time    0.0040: real time    0.0038
    CHARGE:  cpu time   10.7524: real time   10.7665
    MIXING:  cpu time    0.0130: real time    0.0133
    --------------------------------------------
      LOOP:  cpu time  195.2483: real time  195.5488

 eigenvalue-minimisations  : 19080
 total energy-change (2. order) :-0.6943633E-04  (-0.3011256E-06)
 number of electron     134.9999915 magnetization      -0.2898781
 augmentation part        7.5609134 magnetization       0.0006514

 DIPCOR: dipole corrections for dipol
 direction  3 min pos    17,
 dipolmoment           0.000000      0.000000     -0.575650 electrons x Angstroem
 Tr[quadrupol]     -2318.149996

 energy correction for charged system         0.000000 eV
 dipol+quadrupol energy correction           -0.017755 eV
 added-field ion interaction        -10.932026 eV  (added to PSCEN)


 Broyden mixing:
  rms(total) = 0.27603E-04    rms(broyden)= 0.27602E-04
  rms(prec ) = 0.45306E-04
  weight for this iteration     100.00

 eigenvalues of (default mixing * dielectric matrix)
  average eigenvalue GAMMA=   1.3988
  3.1459  3.1459  1.3383  1.3383  0.8369  0.8369  0.6633  0.6633  0.6203

 Free energy of the ion-electron system (eV)
  ---------------------------------------------------
  alpha Z        PSCENC =        44.64063952
  Ewald energy   TEWEN  =     21840.33001928
  -Hartree energ DENC   =    -26400.29723372
  -exchange      EXHF   =         0.00000000
  -V(xc)+E(xc)   XCENC  =       485.56773704
  PAW double counting   =      2689.13183176    -2819.05112748
  entropy T*S    EENTRO =        -0.03707717
  eigenvalues    EBANDS =     -1610.87427750
  atomic energy  EATOM  =      5474.79130437
  Solvation  Ediel_sol  =         0.00000000
  ---------------------------------------------------
  free energy    TOTEN  =      -295.79818390 eV

  energy without entropy =     -295.76110672  energy(sigma->0) =     -295.77964531


--------------------------------------------------------------------------------------------------------




--------------------------------------- Iteration      1(  11)  ---------------------------------------


    POTLOK:  cpu time    0.4039: real time    0.4061
    SETDIJ:  cpu time    0.0140: real time    0.0136
     EDDAV:  cpu time  191.2409: real time  191.5540
       DOS:  cpu time    0.0040: real time    0.0038
    CHARGE:  cpu time   10.6504: real time   10.6735
    MIXING:  cpu time    0.0140: real time    0.0140
    --------------------------------------------
      LOOP:  cpu time  202.3272: real time  202.6651

 eigenvalue-minimisations  : 20064
 total energy-change (2. order) :-0.5719357E-04  (-0.1972032E-06)
 number of electron     134.9999915 magnetization      -0.2897872
 augmentation part        7.5609180 magnetization       0.0006885

 DIPCOR: dipole corrections for dipol
 direction  3 min pos    19,
 dipolmoment           0.000000      0.000000     -0.575615 electrons x Angstroem
 Tr[quadrupol]     -2317.943734

 energy correction for charged system         0.000000 eV
 dipol+quadrupol energy correction           -0.017753 eV
 added-field ion interaction        -12.418355 eV  (added to PSCEN)


 Broyden mixing:
  rms(total) = 0.19821E-04    rms(broyden)= 0.19819E-04
  rms(prec ) = 0.31802E-04
  weight for this iteration     100.00

 eigenvalues of (default mixing * dielectric matrix)
  average eigenvalue GAMMA=   1.4888
  3.7301  3.7301  1.4423  1.4423  0.9237  0.9237  0.7307  0.7307  0.6171  0.6171

 Free energy of the ion-electron system (eV)
  ---------------------------------------------------
  alpha Z        PSCENC =        43.15431316
  Ewald energy   TEWEN  =     21840.33001928
  -Hartree energ DENC   =    -26400.28197948
  -exchange      EXHF   =         0.00000000
  -V(xc)+E(xc)   XCENC  =       485.56764628
  PAW double counting   =      2689.13248345    -2819.05176875
  entropy T*S    EENTRO =        -0.03707590
  eigenvalues    EBANDS =     -1609.40318350
  atomic energy  EATOM  =      5474.79130437
  Solvation  Ediel_sol  =         0.00000000
  ---------------------------------------------------
  free energy    TOTEN  =      -295.79824109 eV

  energy without entropy =     -295.76116519  energy(sigma->0) =     -295.77970314


--------------------------------------------------------------------------------------------------------




--------------------------------------- Iteration      1(  12)  ---------------------------------------


    POTLOK:  cpu time    0.4049: real time    0.4064
    SETDIJ:  cpu time    0.0130: real time    0.0135
     EDDAV:  cpu time  187.4775: real time  187.7784
       DOS:  cpu time    0.0030: real time    0.0039
    CHARGE:  cpu time   10.6644: real time   10.6855
    MIXING:  cpu time    0.0150: real time    0.0150
    --------------------------------------------
      LOOP:  cpu time  198.5778: real time  198.9026

 eigenvalue-minimisations  : 19488
 total energy-change (2. order) :-0.2796945E-04  (-0.3434396E-07)
 number of electron     134.9999915 magnetization      -0.2897237
 augmentation part        7.5609191 magnetization       0.0007300

 DIPCOR: dipole corrections for dipol
 direction  3 min pos    22,
 dipolmoment           0.000000      0.000000     -0.575587 electrons x Angstroem
 Tr[quadrupol]     -2317.634935

 energy correction for charged system         0.000000 eV
 dipol+quadrupol energy correction           -0.017751 eV
 added-field ion interaction        -14.648123 eV  (added to PSCEN)


 Broyden mixing:
  rms(total) = 0.14812E-04    rms(broyden)= 0.14812E-04
  rms(prec ) = 0.23561E-04
  weight for this iteration     100.00

 eigenvalues of (default mixing * dielectric matrix)
  average eigenvalue GAMMA=   1.5538
  4.1643  4.1643  1.6022  1.6022  1.0380  1.0380  0.7893  0.7893  0.6410  0.6410
  0.6228

 Free energy of the ion-electron system (eV)
  ---------------------------------------------------
  alpha Z        PSCENC =        40.92454707
  Ewald energy   TEWEN  =     21840.33001928
  -Hartree energ DENC   =    -26400.27421653
  -exchange      EXHF   =         0.00000000
  -V(xc)+E(xc)   XCENC  =       485.56761198
  PAW double counting   =      2689.13372027    -2819.05301348
  entropy T*S    EENTRO =        -0.03707534
  eigenvalues    EBANDS =     -1607.18116668
  atomic energy  EATOM  =      5474.79130437
  Solvation  Ediel_sol  =         0.00000000
  ---------------------------------------------------
  free energy    TOTEN  =      -295.79826906 eV

  energy without entropy =     -295.76119372  energy(sigma->0) =     -295.77973139


--------------------------------------------------------------------------------------------------------




--------------------------------------- Iteration      1(  13)  ---------------------------------------


    POTLOK:  cpu time    0.4059: real time    0.4061
    SETDIJ:  cpu time    0.0140: real time    0.0137
     EDDAV:  cpu time  182.2653: real time  182.5587
       DOS:  cpu time    0.0040: real time    0.0037
    CHARGE:  cpu time   10.7284: real time   10.7432
    MIXING:  cpu time    0.0150: real time    0.0158
    --------------------------------------------
      LOOP:  cpu time  193.4336: real time  193.7412

 eigenvalue-minimisations  : 18720
 total energy-change (2. order) :-0.1318385E-04  (-0.5768742E-08)
 number of electron     134.9999915 magnetization      -0.2896793
 augmentation part        7.5609173 magnetization       0.0007943

 DIPCOR: dipole corrections for dipol
 direction  3 min pos    23,
 dipolmoment           0.000000      0.000000     -0.575594 electrons x Angstroem
 Tr[quadrupol]     -2317.531868

 energy correction for charged system         0.000000 eV
 dipol+quadrupol energy correction           -0.017751 eV
 added-field ion interaction        -15.391775 eV  (added to PSCEN)


 Broyden mixing:
  rms(total) = 0.66989E-05    rms(broyden)= 0.66979E-05
  rms(prec ) = 0.11332E-04
  weight for this iteration     100.00

 eigenvalues of (default mixing * dielectric matrix)
  average eigenvalue GAMMA=   1.6436
  4.7230  4.7230  1.8147  1.8147  1.1491  1.1491  0.8352  0.8352  0.7495  0.6324
  0.6324  0.6657

 Free energy of the ion-electron system (eV)
  ---------------------------------------------------
  alpha Z        PSCENC =        40.18089441
  Ewald energy   TEWEN  =     21840.33001928
  -Hartree energ DENC   =    -26400.27107077
  -exchange      EXHF   =         0.00000000
  -V(xc)+E(xc)   XCENC  =       485.56761041
  PAW double counting   =      2689.13453249    -2819.05381675
  entropy T*S    EENTRO =        -0.03707573
  eigenvalues    EBANDS =     -1606.44067995
  atomic energy  EATOM  =      5474.79130437
  Solvation  Ediel_sol  =         0.00000000
  ---------------------------------------------------
  free energy    TOTEN  =      -295.79828224 eV

  energy without entropy =     -295.76120651  energy(sigma->0) =     -295.77974438


--------------------------------------------------------------------------------------------------------




--------------------------------------- Iteration      1(  14)  ---------------------------------------


    POTLOK:  cpu time    0.4059: real time    0.4059
    SETDIJ:  cpu time    0.0150: real time    0.0143
     EDDAV:  cpu time  183.9510: real time  184.2470
       DOS:  cpu time    0.0030: real time    0.0038
    CHARGE:  cpu time   10.7524: real time   10.7699
    MIXING:  cpu time    0.0180: real time    0.0174
    --------------------------------------------
      LOOP:  cpu time  195.1443: real time  195.4583

 eigenvalue-minimisations  : 18936
 total energy-change (2. order) :-0.7313201E-05  (-0.1059325E-08)
 number of electron     134.9999915 magnetization      -0.2896598
 augmentation part        7.5609175 magnetization       0.0008036

 DIPCOR: dipole corrections for dipol
 direction  3 min pos    24,
 dipolmoment           0.000000      0.000000     -0.575577 electrons x Angstroem
 Tr[quadrupol]     -2317.428834

 energy correction for charged system         0.000000 eV
 dipol+quadrupol energy correction           -0.017750 eV
 added-field ion interaction        -16.134748 eV  (added to PSCEN)


 Broyden mixing:
  rms(total) = 0.37599E-05    rms(broyden)= 0.37598E-05
  rms(prec ) = 0.65565E-05
  weight for this iteration     100.00

 eigenvalues of (default mixing * dielectric matrix)
  average eigenvalue GAMMA=   1.7264
  5.3452  5.3452  1.9869  1.9869  1.2451  1.2451  0.9127  0.9127  0.7850  0.7850
  0.6351  0.6351  0.6231

 Free energy of the ion-electron system (eV)
  ---------------------------------------------------
  alpha Z        PSCENC =        39.43792286
  Ewald energy   TEWEN  =     21840.33001928
  -Hartree energ DENC   =    -26400.26786728
  -exchange      EXHF   =         0.00000000
  -V(xc)+E(xc)   XCENC  =       485.56760485
  PAW double counting   =      2689.13449514    -2819.05377876
  entropy T*S    EENTRO =        -0.03707538
  eigenvalues    EBANDS =     -1605.70091464
  atomic energy  EATOM  =      5474.79130437
  Solvation  Ediel_sol  =         0.00000000
  ---------------------------------------------------
  free energy    TOTEN  =      -295.79828956 eV

  energy without entropy =     -295.76121418  energy(sigma->0) =     -295.77975187


--------------------------------------------------------------------------------------------------------




--------------------------------------- Iteration      1(  15)  ---------------------------------------


    POTLOK:  cpu time    0.4029: real time    0.4068
    SETDIJ:  cpu time    0.0140: real time    0.0134
     EDDAV:  cpu time  170.8590: real time  171.1221
       DOS:  cpu time    0.0030: real time    0.0038
    CHARGE:  cpu time   10.7124: real time   10.7275
    MIXING:  cpu time    0.0170: real time    0.0175
    --------------------------------------------
      LOOP:  cpu time  182.0083: real time  182.2910

 eigenvalue-minimisations  : 17208
 total energy-change (2. order) :-0.1582268E-05  (-0.1902631E-07)
 number of electron     134.9999915 magnetization      -0.2896553
 augmentation part        7.5609169 magnetization       0.0008134

 DIPCOR: dipole corrections for dipol
 direction  3 min pos    18,
 dipolmoment           0.000000      0.000000     -0.575589 electrons x Angstroem
 Tr[quadrupol]     -2318.045366

 energy correction for charged system         0.000000 eV
 dipol+quadrupol energy correction           -0.017751 eV
 added-field ion interaction        -11.674316 eV  (added to PSCEN)


 Broyden mixing:
  rms(total) = 0.29224E-05    rms(broyden)= 0.29222E-05
  rms(prec ) = 0.48008E-05
  weight for this iteration     100.00

 eigenvalues of (default mixing * dielectric matrix)
  average eigenvalue GAMMA=   1.7863
  6.1153  5.5871  2.5259  1.8466  1.3422  1.3422  1.0084  1.0084  0.8137  0.8137
  0.7100  0.6346  0.6346  0.6248

 Free energy of the ion-electron system (eV)
  ---------------------------------------------------
  alpha Z        PSCENC =        43.89835365
  Ewald energy   TEWEN  =     21840.33001928
  -Hartree energ DENC   =    -26400.26602953
  -exchange      EXHF   =         0.00000000
  -V(xc)+E(xc)   XCENC  =       485.56759770
  PAW double counting   =      2689.13406080    -2819.05335196
  entropy T*S    EENTRO =        -0.03707550
  eigenvalues    EBANDS =     -1610.16316996
  atomic energy  EATOM  =      5474.79130437
  Solvation  Ediel_sol  =         0.00000000
  ---------------------------------------------------
  free energy    TOTEN  =      -295.79829114 eV

  energy without entropy =     -295.76121564  energy(sigma->0) =     -295.77975339


--------------------------------------------------------------------------------------------------------




--------------------------------------- Iteration      1(  16)  ---------------------------------------


    POTLOK:  cpu time    0.4079: real time    0.4085
    SETDIJ:  cpu time    0.0130: real time    0.0137
     EDDAV:  cpu time  186.3327: real time  186.6440
       DOS:  cpu time    0.0040: real time    0.0038
    --------------------------------------------
      LOOP:  cpu time  186.7576: real time  187.0700

 eigenvalue-minimisations  : 19272
 total energy-change (2. order) :-0.4850472E-06  (-0.3967056E-08)
 number of electron     134.9999915 magnetization      -0.2896553
 augmentation part        7.5609169 magnetization       0.0008134

 DIPCOR: dipole corrections for dipol
 direction  3 min pos    16,
 dipolmoment           0.000000      0.000000     -0.575567 electrons x Angstroem
 Tr[quadrupol]     -2318.250831

 energy correction for charged system         0.000000 eV
 dipol+quadrupol energy correction           -0.017750 eV
 added-field ion interaction        -10.187022 eV  (added to PSCEN)


 Free energy of the ion-electron system (eV)
  ---------------------------------------------------
  alpha Z        PSCENC =        45.38564920
  Ewald energy   TEWEN  =     21840.33001928
  -Hartree energ DENC   =    -26400.26478953
  -exchange      EXHF   =         0.00000000
  -V(xc)+E(xc)   XCENC  =       485.56758964
  PAW double counting   =      2689.13380357    -2819.05309921
  entropy T*S    EENTRO =        -0.03707507
  eigenvalues    EBANDS =     -1611.65169387
  atomic energy  EATOM  =      5474.79130437
  Solvation  Ediel_sol  =         0.00000000
  ---------------------------------------------------
  free energy    TOTEN  =      -295.79829162 eV

  energy without entropy =     -295.76121656  energy(sigma->0) =     -295.77975409


--------------------------------------------------------------------------------------------------------




 average (electrostatic) potential at core
  the test charge radii are     0.6991  0.9254
  (the norm of the test charge is              1.0000)
       1 -57.4730       2 -57.4731       3 -57.4283       4 -57.4283       5 -57.5283
       6 -57.6936       7 -57.5286       8 -57.4283       9 -57.4730      10 -57.6936
      11 -57.6936      12 -57.4731      13 -57.4364      14 -57.4730      15 -57.5283
      16 -57.4730      17 -57.4730      18 -57.5283      19 -57.4731      20 -57.4364
      21 -57.4731      22 -57.6935      23 -57.6937      24 -57.4732      25 -57.4283
      26 -57.5284      27 -57.6935      28 -57.5283      29 -57.4283      30 -57.4283
      31 -57.4730      32 -57.4730      33 -53.9287
 
 
 
 E-fermi :  -1.3284     XC(G=0):  -2.3567     alpha+bet : -2.0812


 spin component 1

 k-point     1 :       0.0000    0.0000    0.0000
  band No.  band energies     occupation 
      1     -28.1068      1.00000
      2     -28.1068      1.00000
      3     -28.0994      1.00000
      4     -21.6272      1.00000
      5     -20.2628      1.00000
      6     -20.1851      1.00000
      7     -20.1850      1.00000
      8     -20.1064      1.00000
      9     -20.1064      1.00000
     10     -20.0787      1.00000
     11     -17.3657      1.00000
     12     -17.3656      1.00000
     13     -17.3393      1.00000
     14     -17.3393      1.00000
     15     -17.3276      1.00000
     16     -17.2968      1.00000
     17     -16.3825      1.00000
     18     -16.3825      1.00000
     19     -16.3730      1.00000
     20     -15.3387      1.00000
     21     -15.3258      1.00000
     22     -15.3258      1.00000
     23     -12.6535      1.00000
     24     -12.6535      1.00000
     25     -12.6433      1.00000
     26     -12.6433      1.00000
     27     -12.6044      1.00000
     28     -12.5985      1.00000
     29     -11.0983      1.00000
     30     -11.0907      1.00000
     31     -11.0259      1.00000
     32     -11.0259      1.00000
     33     -11.0193      1.00000
     34     -11.0192      1.00000
     35      -9.8228      1.00000
     36      -9.5461      1.00000
     37      -9.5460      1.00000
     38      -9.5444      1.00000
     39      -9.5184      1.00000
     40      -9.5183      1.00000
     41      -9.4935      1.00000
     42      -8.5085      1.00000
     43      -8.5083      1.00000
     44      -8.5016      1.00000
     45      -8.2667      1.00000
     46      -8.1253      1.00000
     47      -8.1250      1.00000
     48      -7.9850      1.00000
     49      -7.9850      1.00000
     50      -7.9491      1.00000
     51      -7.1628      1.00000
     52      -7.1570      1.00000
     53      -7.1569      1.00000
     54      -7.1274      1.00000
     55      -7.1273      1.00000
     56      -7.1059      1.00000
     57      -5.1324      1.00000
     58      -5.1323      1.00000
     59      -5.0281      1.00000
     60      -5.0279      1.00000
     61      -4.9157      1.00000
     62      -4.9154      1.00000
     63      -4.8820      1.00000
     64      -4.8298      1.00000
     65      -4.5041      1.00000
     66      -4.5012      1.00000
     67      -4.5012      1.00000
     68      -0.6821      0.00000
     69      -0.5440      0.00000
     70      -0.5439      0.00000
     71      -0.5119      0.00000
     72       0.5972      0.00000
     73       0.5974      0.00000
     74       0.6170      0.00000
     75       0.6171      0.00000
     76       0.6858      0.00000
     77       0.7221      0.00000
     78       1.2719      0.00000
     79       1.3838      0.00000
     80       1.5940      0.00000
     81       1.5962      0.00000
     82       1.7843      0.00000
     83       2.4940      0.00000
     84       2.4942      0.00000
     85       2.5406      0.00000
     86       2.6857      0.00000
     87       2.9626      0.00000
     88       3.3131      0.00000
     89       3.3305      0.00000
     90       3.3306      0.00000
     91       3.4194      0.00000
     92       3.4195      0.00000
     93       3.4460      0.00000
     94       3.5315      0.00000
     95       3.5957      0.00000
     96       3.5959      0.00000
     97       3.6931      0.00000
     98       3.6933      0.00000
     99       3.7280      0.00000
    100       4.3157      0.00000
    101       4.4521      0.00000
    102       4.4523      0.00000
    103       4.6116      0.00000
    104       4.6118      0.00000
    105       4.6176      0.00000
    106       4.6663      0.00000
    107       4.9090      0.00000
    108       4.9767      0.00000
    109       5.0465      0.00000
    110       5.0482      0.00000
    111       5.0488      0.00000
    112       5.0501      0.00000
    113       5.1443      0.00000
    114       5.1448      0.00000
    115       5.1743      0.00000
    116       5.1746      0.00000
    117       5.1758      0.00000
    118       5.1977      0.00000
    119       5.2077      0.00000
    120       5.2082      0.00000

 k-point     2 :       0.1111    0.0000    0.0000
  band No.  band energies     occupation 
      1     -28.1068      1.00000
      2     -28.1068      1.00000
      3     -28.0994      1.00000
      4     -21.6093      1.00000
      5     -20.4824      1.00000
      6     -20.2939      1.00000
      7     -20.2901      1.00000
      8     -19.9960      1.00000
      9     -19.9621      1.00000
     10     -19.7944      1.00000
     11     -17.7865      1.00000
     12     -17.7680      1.00000
     13     -17.3265      1.00000
     14     -17.3190      1.00000
[...]
 -0.000  -0.000  -0.018   0.000  -0.000  -0.771  -0.000  -0.000
 -0.000  -0.000   0.000  -0.015   0.000  -0.000  -0.771  -0.000
 -0.000  -0.000  -0.000   0.000  -0.018  -0.000  -0.000  -0.771
 total augmentation occupancy for first ion, spin component:           1
  1.467  -1.129  -0.002  -0.002  -0.001  -0.000   0.000   0.000
 -1.129   1.068  -0.001  -0.002  -0.002  -0.000  -0.000  -0.001
 -0.002  -0.001   1.224  -0.001  -0.001   0.222  -0.000  -0.000
 -0.002  -0.002  -0.001   0.941  -0.001  -0.000   0.102  -0.000
 -0.001  -0.002  -0.001  -0.001   1.220  -0.000  -0.000   0.222
 -0.000  -0.000   0.222  -0.000  -0.000   0.046  -0.000   0.000
  0.000  -0.000  -0.000   0.102  -0.000  -0.000   0.013  -0.000
  0.000  -0.001  -0.000  -0.000   0.222   0.000  -0.000   0.046
 total augmentation occupancy for first ion, spin component:           2
 -0.000  -0.000  -0.000  -0.000   0.000   0.000  -0.000   0.000
 -0.000  -0.000  -0.000   0.000  -0.000   0.000   0.000   0.000
 -0.000  -0.000   0.000  -0.000   0.000  -0.000  -0.000   0.000
 -0.000   0.000  -0.000  -0.000  -0.000  -0.000  -0.000  -0.000
  0.000  -0.000   0.000  -0.000   0.000   0.000  -0.000   0.000
  0.000   0.000  -0.000  -0.000   0.000  -0.000  -0.000  -0.000
 -0.000   0.000  -0.000  -0.000  -0.000  -0.000  -0.000   0.000
  0.000   0.000   0.000  -0.000   0.000  -0.000   0.000  -0.000


------------------------ aborting loop because EDIFF is reached ----------------------------------------


 


 total charge     
 
# of ion       s       p       d       tot
------------------------------------------
    1        0.863   1.787   0.000   2.651
    2        0.863   1.787   0.000   2.651
    3        0.863   1.789   0.000   2.652
    4        0.863   1.789   0.000   2.652
    5        0.863   1.788   0.000   2.651
    6        0.861   1.788   0.000   2.649
    7        0.863   1.788   0.000   2.651
    8        0.863   1.789   0.000   2.652
    9        0.863   1.787   0.000   2.651
   10        0.861   1.788   0.000   2.649
   11        0.861   1.788   0.000   2.649
   12        0.863   1.787   0.000   2.651
   13        0.863   1.786   0.000   2.649
   14        0.863   1.787   0.000   2.651
   15        0.863   1.788   0.000   2.651
   16        0.863   1.787   0.000   2.651
   17        0.863   1.787   0.000   2.651
   18        0.863   1.788   0.000   2.651
   19        0.863   1.787   0.000   2.651
   20        0.863   1.786   0.000   2.649
   21        0.863   1.787   0.000   2.651
   22        0.861   1.788   0.000   2.649
   23        0.861   1.788   0.000   2.649
   24        0.863   1.787   0.000   2.651
   25        0.863   1.789   0.000   2.652
   26        0.863   1.788   0.000   2.651
   27        0.861   1.788   0.000   2.649
   28        0.863   1.788   0.000   2.651
   29        0.863   1.789   0.000   2.652
   30        0.863   1.789   0.000   2.652
   31        0.863   1.787   0.000   2.651
   32        0.863   1.787   0.000   2.651
   33        0.048   5.965   0.000   6.013
--------------------------------------------------
tot         27.659  63.178   0.000  90.837
 


 magnetization (x)
 
# of ion       s       p       d       tot
------------------------------------------
    1       -0.000   0.000   0.000  -0.000
    2       -0.000   0.000   0.000  -0.000
    3       -0.000  -0.000   0.000  -0.000
    4       -0.000  -0.000   0.000  -0.000
    5       -0.000  -0.000   0.000  -0.000
    6       -0.000  -0.000   0.000  -0.000
    7       -0.000  -0.000   0.000  -0.000
    8       -0.000  -0.000   0.000  -0.000
    9       -0.000   0.000   0.000   0.000
   10       -0.000  -0.000   0.000  -0.000
   11       -0.000  -0.000   0.000  -0.000
   12       -0.000   0.000   0.000  -0.000
   13       -0.000  -0.000   0.000  -0.000
   14       -0.000   0.000   0.000  -0.000
   15       -0.000  -0.000   0.000  -0.000
   16       -0.000   0.000   0.000  -0.000
   17       -0.000   0.000   0.000   0.000
   18       -0.000  -0.000   0.000  -0.000
   19       -0.000   0.000   0.000  -0.000
   20       -0.000  -0.000   0.000  -0.000
   21       -0.000   0.000   0.000  -0.000
   22       -0.000  -0.000   0.000  -0.000
   23       -0.000  -0.000   0.000  -0.000
   24       -0.000   0.000   0.000  -0.000
   25       -0.000  -0.000   0.000  -0.000
   26       -0.000  -0.000   0.000  -0.000
   27       -0.000  -0.000   0.000  -0.000
   28       -0.000  -0.000   0.000  -0.000
   29       -0.000  -0.000   0.000  -0.000
   30       -0.000  -0.000   0.000  -0.000
   31       -0.000   0.000   0.000  -0.000
   32       -0.000   0.000   0.000   0.000
   33       -0.027  -0.002   0.000  -0.030
--------------------------------------------------
tot         -0.028  -0.006   0.000  -0.034
 
    CHARGE:  cpu time   10.7474: real time   10.7604
    FORLOC:  cpu time    0.0300: real time    0.0295
    FORNL :  cpu time   43.9553: real time   44.0343
    STRESS:  cpu time  131.7800: real time  131.9861
    FORCOR:  cpu time    0.3359: real time    0.3372
    FORHAR:  cpu time    0.0620: real time    0.0619
    MIXING:  cpu time    0.0180: real time    0.0181
    OFIELD:  cpu time    0.0000: real time    0.0001

  FORCE on cell =-STRESS in cart. coord.  units (eV):
  Direction    XX          YY          ZZ          XY          YZ          ZX
  --------------------------------------------------------------------------------------
  Alpha Z    55.59042    55.59042    55.59042
  Ewald   26221.75407 26221.61439-30603.04900    -0.06816     0.02345    -0.04669
  Hartree 25949.35358 25949.23773-25498.32559    -0.05465     0.01377    -0.02794
  E(xc)    -505.23305  -505.23336  -523.49217    -0.00027     0.00002    -0.00005
  Local  -53584.42719-53584.17122 54416.41436     0.12313    -0.03699     0.07410
  n-local  -136.58856  -136.58868  -128.59598    -0.00005     0.00003    -0.00027
  augment    29.53113    29.53104    30.72203    -0.00008     0.00000    -0.00003
  Kinetic  1973.50015  1973.50036  2250.61496    -0.00000    -0.00024     0.00054
  Fock        0.00000     0.00000     0.00000     0.00000     0.00000     0.00000
  -------------------------------------------------------------------------------------
  Total       3.48055     3.48068    -0.12095    -0.00007     0.00004    -0.00036
  in kB       3.30210     3.30223    -0.11475    -0.00006     0.00004    -0.00034
  external pressure =        2.16 kB  Pullay stress =        0.00 kB


 VOLUME and BASIS-vectors are now :
 -----------------------------------------------------------------------------
  energy-cutoff  :      500.00
  volume of cell :     1688.76
      direct lattice vectors                 reciprocal lattice vectors
     9.874235153  0.000000000  0.000000000     0.101273667  0.058470379  0.000000000
    -4.937117577  8.551338486  0.000000000     0.000000000  0.116940757  0.000000000
     0.000000000  0.000000000 20.000000000     0.000000000  0.000000000  0.050000000

  length of vectors
     9.874235153  9.874235153 20.000000000     0.116940757  0.116940757  0.050000000


 FORCES acting on ions
    electron-ion (+dipol)            ewald-force                    non-local-force                 convergence-correction
 -----------------------------------------------------------------------------------------------
   0.276E+01 0.821E+01 0.148E+02   -.285E+01 -.834E+01 -.150E+02   0.912E-01 0.135E+00 0.134E+00   0.726E-06 0.329E-06 0.453E-04
   -.276E+01 0.821E+01 0.151E+02   0.285E+01 -.834E+01 -.152E+02   -.911E-01 0.135E+00 0.134E+00   -.868E-06 0.414E-06 0.450E-04
   -.172E+01 -.990E+00 0.123E+02   0.178E+01 0.103E+01 -.124E+02   -.525E-01 -.303E-01 0.120E+00   0.479E-06 0.497E-06 0.438E-04
   0.172E+01 -.992E+00 0.114E+02   -.178E+01 0.103E+01 -.115E+02   0.524E-01 -.302E-01 0.865E-01   -.589E-06 0.304E-06 0.437E-04
   0.141E+02 0.814E+01 0.227E+02   -.145E+02 -.836E+01 -.229E+02   0.367E+00 0.212E+00 0.228E+00   0.330E-05 0.185E-05 0.477E-04
   -.224E-02 0.232E+02 0.529E+02   0.188E-02 -.238E+02 -.539E+02   0.242E-03 0.545E+00 0.101E+01   -.293E-06 0.556E-05 0.549E-04
   -.141E+02 0.816E+01 0.209E+02   0.145E+02 -.837E+01 -.211E+02   -.368E+00 0.213E+00 0.172E+00   -.331E-05 0.182E-05 0.480E-04
   -.951E-03 0.198E+01 0.114E+02   0.117E-02 -.206E+01 -.114E+02   0.327E-04 0.606E-01 0.885E-01   -.339E-06 -.858E-06 0.437E-04
   0.849E+01 -.172E+01 0.148E+02   -.865E+01 0.170E+01 -.150E+02   0.162E+00 0.117E-01 0.127E+00   0.617E-06 0.878E-06 0.452E-04
   0.201E+02 -.116E+02 0.526E+02   -.206E+02 0.119E+02 -.536E+02   0.473E+00 -.273E+00 0.101E+01   0.465E-05 -.274E-05 0.546E-04
   -.201E+02 -.116E+02 0.529E+02   0.206E+02 0.119E+02 -.539E+02   -.472E+00 -.273E+00 0.101E+01   -.497E-05 -.265E-05 0.546E-04
   -.849E+01 -.172E+01 0.151E+02   0.865E+01 0.170E+01 -.152E+02   -.162E+00 0.115E-01 0.134E+00   -.729E-06 0.738E-06 0.454E-04
   0.863E-03 -.779E-03 0.116E+02   -.910E-03 0.832E-03 -.117E+02   0.735E-04 -.332E-04 0.104E+00   -.992E-07 -.224E-06 0.435E-04
   0.573E+01 -.650E+01 0.148E+02   -.580E+01 0.664E+01 -.150E+02   0.710E-01 -.146E+00 0.126E+00   -.212E-06 -.950E-06 0.454E-04
   0.130E-02 -.163E+02 0.227E+02   -.137E-02 0.167E+02 -.229E+02   0.102E-04 -.424E+00 0.227E+00   0.266E-07 -.380E-05 0.480E-04
   -.573E+01 -.650E+01 0.148E+02   0.580E+01 0.664E+01 -.150E+02   -.710E-01 -.146E+00 0.134E+00   0.177E-06 -.774E-06 0.452E-04
   0.573E+01 0.650E+01 0.149E+02   -.580E+01 -.664E+01 -.150E+02   0.713E-01 0.146E+00 0.137E+00   -.843E-07 0.102E-05 0.452E-04
   0.161E-02 0.163E+02 0.228E+02   -.194E-02 -.167E+02 -.230E+02   -.207E-03 0.424E+00 0.224E+00   -.149E-06 0.381E-05 0.478E-04
   -.574E+01 0.650E+01 0.147E+02   0.580E+01 -.664E+01 -.148E+02   -.710E-01 0.146E+00 0.140E+00   0.421E-06 0.671E-06 0.451E-04
   -.639E-03 -.370E-03 0.115E+02   0.702E-03 0.440E-03 -.116E+02   -.750E-04 0.551E-04 0.110E+00   -.306E-06 0.866E-07 0.432E-04
   0.849E+01 0.172E+01 0.147E+02   -.865E+01 -.171E+01 -.149E+02   0.162E+00 -.115E-01 0.132E+00   0.981E-06 -.675E-06 0.455E-04
   0.201E+02 0.116E+02 0.527E+02   -.206E+02 -.119E+02 -.537E+02   0.472E+00 0.273E+00 0.100E+01   0.468E-05 0.271E-05 0.548E-04
   -.202E+02 0.116E+02 0.526E+02   0.206E+02 -.119E+02 -.536E+02   -.473E+00 0.273E+00 0.102E+01   -.483E-05 0.259E-05 0.545E-04
   -.850E+01 0.172E+01 0.146E+02   0.866E+01 -.170E+01 -.148E+02   -.162E+00 -.117E-01 0.150E+00   -.419E-06 -.558E-06 0.453E-04
   0.154E-02 -.198E+01 0.122E+02   -.172E-02 0.206E+01 -.123E+02   -.203E-03 -.607E-01 0.109E+00   0.548E-07 0.907E-06 0.437E-04
   0.141E+02 -.814E+01 0.226E+02   -.145E+02 0.836E+01 -.228E+02   0.368E+00 -.212E+00 0.228E+00   0.311E-05 -.171E-05 0.482E-04
   0.369E-02 -.232E+02 0.527E+02   -.381E-02 0.238E+02 -.537E+02   -.221E-03 -.546E+00 0.100E+01   -.216E-06 -.528E-05 0.545E-04
   -.141E+02 -.814E+01 0.228E+02   0.145E+02 0.836E+01 -.230E+02   -.368E+00 -.212E+00 0.225E+00   -.285E-05 -.174E-05 0.481E-04
   -.172E+01 0.991E+00 0.114E+02   0.178E+01 -.103E+01 -.115E+02   -.525E-01 0.303E-01 0.869E-01   0.570E-06 -.366E-06 0.440E-04
   0.172E+01 0.989E+00 0.121E+02   -.178E+01 -.103E+01 -.122E+02   0.525E-01 0.305E-01 0.107E+00   -.625E-06 -.587E-06 0.438E-04
   0.276E+01 -.821E+01 0.148E+02   -.285E+01 0.834E+01 -.150E+02   0.911E-01 -.135E+00 0.122E+00   0.761E-06 -.166E-06 0.454E-04
   -.276E+01 -.821E+01 0.149E+02   0.285E+01 0.834E+01 -.150E+02   -.911E-01 -.135E+00 0.136E+00   -.876E-06 -.331E-06 0.452E-04
   0.518E-01 -.305E-01 -.737E+03   -.519E-01 0.309E-01 0.733E+03   0.273E-04 -.346E-03 0.415E+01   -.133E-06 0.227E-07 0.140E-03
 -----------------------------------------------------------------------------------------------
   0.123E-02 -.344E-03 -.139E+02   -.132E-13 0.214E-13 0.000E+00   -.105E-02 0.358E-03 0.139E+02   -.134E-05 0.810E-06 0.165E-02
 
 
 POSITION                                       TOTAL-FORCE (eV/Angst)
 -----------------------------------------------------------------------------------
      1.23329      0.71105     10.00000         0.000820      0.005895     -0.010779
      3.70383      0.71105      9.99949        -0.000516      0.005736     -0.009345
      6.17176      0.71283     10.00000         0.014283      0.008011      0.024946
      8.63959      0.71282     10.00172        -0.014510      0.008340      0.000128
     -0.00416      2.84804      9.99579        -0.005346     -0.002890      0.005464
      2.46855      2.84552      9.98311        -0.000122      0.004513      0.009941
      4.94129      2.84804     10.00000         0.003433     -0.002019     -0.034211
      7.40567      2.85002     10.00218         0.000245     -0.016507      0.001912
     -1.23613      4.98821      9.99992         0.005354     -0.002551     -0.014934
      1.23001      4.99075      9.98367         0.004328     -0.002572      0.004852
      3.70710      4.99075      9.98316        -0.003888     -0.002152      0.010301
      6.17324      4.98821      9.99957        -0.005153     -0.002360     -0.008635
     -2.46856      7.12612     10.00001         0.000021      0.000019      0.002579
     -0.00086      7.12775      9.99979         0.005021     -0.003297     -0.016057
      2.46856      7.13092      9.99571        -0.000065      0.005995      0.004677
      4.93797      7.12775     10.00000        -0.004633     -0.003655     -0.011193
     -0.00086      1.42358     10.00000         0.005134      0.003720     -0.007791
      2.46857      1.42042      9.99551        -0.000542     -0.005617      0.005027
      4.93797      1.42359     10.00076        -0.004627      0.003087     -0.007458
      7.40568      1.42522     10.00062        -0.000017      0.000124      0.009461
     -1.23613      3.56313     10.00041         0.005564      0.002391     -0.013112
      1.23001      3.56059      9.98340         0.004096      0.002738      0.001762
      3.70709      3.56061      9.98431        -0.002940      0.001636      0.013630
      6.17324      3.56314     10.00128        -0.005009      0.002463     -0.001737
     -2.46856      5.70132     10.00000        -0.000393      0.016158      0.015920
     -0.00418      5.70330      9.99585        -0.004383      0.002523      0.006154
      2.46857      5.70582      9.98347        -0.000355     -0.004714      0.002240
      4.94129      5.70329      9.99547         0.004500      0.003271      0.004917
     -3.70247      7.83851     10.00160         0.014064     -0.008145      0.000020
     -1.23465      7.83851     10.00000        -0.014241     -0.007774      0.014471
      1.23329      7.84029      9.99981         0.000587     -0.006081     -0.019950
      3.70383      7.84029     10.00000        -0.000681     -0.006276     -0.009681
      2.46856      4.27567     12.29870        -0.000030     -0.000011      0.026483
 -----------------------------------------------------------------------------------
    total drift:                                0.000175      0.000014      0.007095


--------------------------------------------------------------------------------------------------------



  FREE ENERGIE OF THE ION-ELECTRON SYSTEM (eV)
  ---------------------------------------------------
  free  energy   TOTEN  =      -295.79829162 eV

  energy  without entropy=     -295.76121656  energy(sigma->0) =     -295.77975409
 


--------------------------------------------------------------------------------------------------------


    POTLOK:  cpu time    0.4179: real time    0.4191


--------------------------------------------------------------------------------------------------------


 writing wavefunctions
     LOOP+:  cpu time 3433.7500: real time 3532.8394
 vacuum level on the upper side and lower side of the slab         0.941         2.175
    4ORBIT:  cpu time    0.0000: real time    0.0000
 


 total charge     
 
# of ion       s       p       d       tot
------------------------------------------
    1        0.863   1.787   0.000   2.651
    2        0.863   1.787   0.000   2.651
    3        0.863   1.789   0.000   2.652
    4        0.863   1.789   0.000   2.652
    5        0.863   1.788   0.000   2.651
    6        0.861   1.788   0.000   2.649
    7        0.863   1.788   0.000   2.651
    8        0.863   1.789   0.000   2.652
    9        0.863   1.787   0.000   2.651
   10        0.861   1.788   0.000   2.649
   11        0.861   1.788   0.000   2.649
   12        0.863   1.787   0.000   2.651
   13        0.863   1.786   0.000   2.649
   14        0.863   1.787   0.000   2.651
   15        0.863   1.788   0.000   2.651
   16        0.863   1.787   0.000   2.651
   17        0.863   1.787   0.000   2.651
   18        0.863   1.788   0.000   2.651
   19        0.863   1.787   0.000   2.651
   20        0.863   1.786   0.000   2.649
   21        0.863   1.787   0.000   2.651
   22        0.861   1.788   0.000   2.649
   23        0.861   1.788   0.000   2.649
   24        0.863   1.787   0.000   2.651
   25        0.863   1.789   0.000   2.652
   26        0.863   1.788   0.000   2.651
   27        0.861   1.788   0.000   2.649
   28        0.863   1.788   0.000   2.651
   29        0.863   1.789   0.000   2.652
   30        0.863   1.789   0.000   2.652
   31        0.863   1.787   0.000   2.651
   32        0.863   1.787   0.000   2.651
   33        0.048   5.965   0.000   6.013
--------------------------------------------------
tot         27.659  63.178   0.000  90.837
 


 magnetization (x)
 
# of ion       s       p       d       tot
------------------------------------------
    1       -0.000   0.000   0.000  -0.000
    2       -0.000   0.000   0.000  -0.000
    3       -0.000  -0.000   0.000  -0.000
    4       -0.000  -0.000   0.000  -0.000
    5       -0.000  -0.000   0.000  -0.000
    6       -0.000  -0.000   0.000  -0.000
    7       -0.000  -0.000   0.000  -0.000
    8       -0.000  -0.000   0.000  -0.000
    9       -0.000   0.000   0.000   0.000
   10       -0.000  -0.000   0.000  -0.000
   11       -0.000  -0.000   0.000  -0.000
   12       -0.000   0.000   0.000  -0.000
   13       -0.000  -0.000   0.000  -0.000
   14       -0.000   0.000   0.000  -0.000
   15       -0.000  -0.000   0.000  -0.000
   16       -0.000   0.000   0.000  -0.000
   17       -0.000   0.000   0.000   0.000
   18       -0.000  -0.000   0.000  -0.000
   19       -0.000   0.000   0.000  -0.000
   20       -0.000  -0.000   0.000  -0.000
   21       -0.000   0.000   0.000  -0.000
   22       -0.000  -0.000   0.000  -0.000
   23       -0.000  -0.000   0.000  -0.000
   24       -0.000   0.000   0.000  -0.000
   25       -0.000  -0.000   0.000  -0.000
   26       -0.000  -0.000   0.000  -0.000
   27       -0.000  -0.000   0.000  -0.000
   28       -0.000  -0.000   0.000  -0.000
   29       -0.000  -0.000   0.000  -0.000
   30       -0.000  -0.000   0.000  -0.000
   31       -0.000   0.000   0.000  -0.000
   32       -0.000   0.000   0.000   0.000
   33       -0.027  -0.002   0.000  -0.030
--------------------------------------------------
tot         -0.028  -0.006   0.000  -0.034
 

 total amount of memory used by VASP MPI-rank0   399237. kBytes
=======================================================================

   base      :      30000. kBytes
   nonlr-proj:       5794. kBytes
   fftplans  :       7527. kBytes
   grid      :      72480. kBytes
   one-center:        202. kBytes
   wavefun   :     283234. kBytes
 
  
  
 General timing and accounting informations for this job:
 ========================================================
  
                  Total CPU time used (sec):     3542.681
                            User time (sec):     3485.791
                          System time (sec):       56.890
                         Elapsed time (sec):     3725.640
  
                   Maximum memory used (kb):           0.
                   Average memory used (kb):           0.
  
                          Minor page faults:       142732
                          Major page faults:            4
                 Voluntary context switches:        20082
