 running on   28 total cores
 distrk:  each k-point on   28 cores,    1 groups
 distr:  one band on    1 cores,   28 groups
 using from now: INCAR     
 vasp.5.4.4.18Apr17-6-g9f103f2a35 (build Aug 15 2019 10:58:36) complex          
  
 POSCAR found type information on POSCAR  C  Na O  H 
 POSCAR found :  4 types and      36 ions
 scaLAPACK will be used

 ----------------------------------------------------------------------------- 
|                                                                             |
|           W    W    AA    RRRRR   N    N  II  N    N   GGGG   !!!           |
|           W    W   A  A   R    R  NN   N  II  NN   N  G    G  !!!           |
|           W    W  A    A  R    R  N N  N  II  N N  N  G       !!!           |
|           W WW W  AAAAAA  RRRRR   N  N N  II  N  N N  G  GGG   !            |
|           WW  WW  A    A  R   R   N   NN  II  N   NN  G    G                |
|           W    W  A    A  R    R  N    N  II  N    N   GGGG   !!!           |
|                                                                             |
|      For optimal performance we recommend to set                            |
|        NCORE= 4 - approx SQRT( number of cores)                             |
|      NCORE specifies how many cores store one orbital (NPAR=cpu/NCORE).     |
|      This setting can  greatly improve the performance of VASP for DFT.     |
|      The default,   NCORE=1            might be grossly inefficient         |
|      on modern multi-core architectures or massively parallel machines.     |
|      Do your own testing !!!!                                               |
|      Unfortunately you need to use the default for GW and RPA calculations. |
|      (for HF NCORE is supported but not extensively tested yet)             |
|                                                                             |
 ----------------------------------------------------------------------------- 

 LDA part: xc-table for Pade appr. of Perdew
 found WAVECAR, reading the header
 POSCAR, INCAR and KPOINTS ok, starting setup
 FFT: planning ...
 reading WAVECAR
 the WAVECAR file was read successfully
 augmentation electrons   143.000625197959     
 soft         electrons  0.000000000000000E+000
 augmentation electrons   143.000625197959     
 soft         electrons  0.000000000000000E+000
 augmentation electrons   143.000625197959     
 soft         electrons  0.000000000000000E+000
 augmentation electrons   143.000625197959     
 soft         electrons  0.000000000000000E+000
 augmentation electrons   143.000625197959     
 soft         electrons  0.000000000000000E+000
 augmentation electrons   143.000625197959     
 soft         electrons  0.000000000000000E+000
 augmentation electrons   143.000625197959     
 soft         electrons  0.000000000000000E+000
 augmentation electrons   143.000625197959     
 soft         electrons  0.000000000000000E+000
 augmentation electrons   143.000625197959     
 soft         electrons  0.000000000000000E+000
 augmentation electrons   143.000625197959     
 soft         electrons  0.000000000000000E+000
 augmentation electrons   143.000625197959     
 soft         electrons  0.000000000000000E+000
 augmentation electrons   143.000625197959     
 soft         electrons  0.000000000000000E+000
 augmentation electrons   143.000625197959     
 soft         electrons  0.000000000000000E+000
 augmentation electrons   143.000625197959     
 soft         electrons  0.000000000000000E+000
 augmentation electrons   143.000625197959     
 soft         electrons  0.000000000000000E+000
 augmentation electrons   143.000625197959     
 soft         electrons  0.000000000000000E+000
 augmentation electrons   143.000625197959     
 soft         electrons  0.000000000000000E+000
 augmentation electrons   143.000625197959     
 soft         electrons  0.000000000000000E+000
 augmentation electrons   143.000625197959     
 soft         electrons  0.000000000000000E+000
 augmentation electrons   143.000625197959     
 soft         electrons  0.000000000000000E+000
 augmentation electrons   143.000625197959     
 soft         electrons  0.000000000000000E+000
 augmentation electrons   143.000625197959     
 soft         electrons  0.000000000000000E+000
 augmentation electrons   143.000625197959     
 soft         electrons  0.000000000000000E+000
 augmentation electrons   143.000625197959     
 soft         electrons  0.000000000000000E+000
 augmentation electrons   143.000625197959     
 soft         electrons  0.000000000000000E+000
 augmentation electrons   143.000625197959     
 soft         electrons  0.000000000000000E+000
 augmentation electrons   143.000625197959     
 soft         electrons  0.000000000000000E+000
 augmentation electrons   143.000625197959     
 soft         electrons  0.000000000000000E+000
 total        electrons   143.000625197959     
 total        electrons   143.000625197959     
 total        electrons   143.000625197959     
 total        electrons   143.000625197959     
 total        electrons   143.000625197959     
 total        electrons   143.000625197959     
 total        electrons   143.000625197959     
 total        electrons   143.000625197959     
 total        electrons   143.000625197959     
 total        electrons   143.000625197959     
 total        electrons   143.000625197959     
 total        electrons   143.000625197959     
 total        electrons   143.000625197959     
 total        electrons   143.000625197959     
 total        electrons   143.000625197959     
 total        electrons   143.000625197959     
 total        electrons   143.000625197959     
 total        electrons   143.000625197959     
 total        electrons   143.000625197959     
 total        electrons   143.000625197959     
 total        electrons   143.000625197959     
 total        electrons   143.000625197959     
 total        electrons   143.000625197959     
 total        electrons   143.000625197959     
 total        electrons   143.000625197959     
 total        electrons   143.000625197959     
 total        electrons   143.000625197959     
 total        electrons   143.000625197959     
 augmentation electrons -4.010860199111267E-004
 soft         electrons  0.000000000000000E+000
 augmentation electrons -4.010860199111267E-004
 soft         electrons  0.000000000000000E+000
 augmentation electrons -4.010860199111267E-004
 soft         electrons  0.000000000000000E+000
 augmentation electrons -4.010860199111267E-004
 soft         electrons  0.000000000000000E+000
 augmentation electrons -4.010860199111267E-004
 soft         electrons  0.000000000000000E+000
 augmentation electrons -4.010860199111267E-004
 soft         electrons  0.000000000000000E+000
 augmentation electrons -4.010860199111267E-004
 soft         electrons  0.000000000000000E+000
 augmentation electrons -4.010860199111267E-004
 soft         electrons  0.000000000000000E+000
 augmentation electrons -4.010860199111267E-004
 soft         electrons  0.000000000000000E+000
 augmentation electrons -4.010860199111267E-004
 soft         electrons  0.000000000000000E+000
 augmentation electrons -4.010860199111267E-004
 soft         electrons  0.000000000000000E+000
 augmentation electrons -4.010860199111267E-004
 soft         electrons  0.000000000000000E+000
 augmentation electrons -4.010860199111267E-004
 soft         electrons  0.000000000000000E+000
 augmentation electrons -4.010860199111267E-004
 soft         electrons  0.000000000000000E+000
 augmentation electrons -4.010860199111267E-004
 soft         electrons  0.000000000000000E+000
 augmentation electrons -4.010860199111267E-004
 augmentation electrons -4.010860199111267E-004
 soft         electrons  0.000000000000000E+000
 augmentation electrons -4.010860199111267E-004
 soft         electrons  0.000000000000000E+000
 augmentation electrons -4.010860199111267E-004
 soft         electrons  0.000000000000000E+000
 augmentation electrons -4.010860199111267E-004
 soft         electrons  0.000000000000000E+000
 augmentation electrons -4.010860199111267E-004
 soft         electrons  0.000000000000000E+000
 augmentation electrons -4.010860199111267E-004
 soft         electrons  0.000000000000000E+000
 augmentation electrons -4.010860199111267E-004
 soft         electrons  0.000000000000000E+000
 augmentation electrons -4.010860199111267E-004
 soft         electrons  0.000000000000000E+000
 augmentation electrons -4.010860199111267E-004
 soft         electrons  0.000000000000000E+000
 augmentation electrons -4.010860199111267E-004
 soft         electrons  0.000000000000000E+000
 augmentation electrons -4.010860199111267E-004
 soft         electrons  0.000000000000000E+000
 augmentation electrons -4.010860199111267E-004
 soft         electrons  0.000000000000000E+000
 soft         electrons  0.000000000000000E+000
 total        electrons -4.010860199111267E-004
 total        electrons -4.010860199111267E-004
 total        electrons -4.010860199111267E-004
 total        electrons -4.010860199111267E-004
 total        electrons -4.010860199111267E-004
 total        electrons -4.010860199111267E-004
 total        electrons -4.010860199111267E-004
 total        electrons -4.010860199111267E-004
 total        electrons -4.010860199111267E-004
 total        electrons -4.010860199111267E-004
 total        electrons -4.010860199111267E-004
 total        electrons -4.010860199111267E-004
 total        electrons -4.010860199111267E-004
 total        electrons -4.010860199111267E-004
 total        electrons -4.010860199111267E-004
 total        electrons -4.010860199111267E-004
 total        electrons -4.010860199111267E-004
 total        electrons -4.010860199111267E-004
 total        electrons -4.010860199111267E-004
 total        electrons -4.010860199111267E-004
 total        electrons -4.010860199111267E-004
 total        electrons -4.010860199111267E-004
 total        electrons -4.010860199111267E-004
 total        electrons -4.010860199111267E-004
 total        electrons -4.010860199111267E-004
 total        electrons -4.010860199111267E-004
 total        electrons -4.010860199111267E-004
 total        electrons -4.010860199111267E-004
 augmentation electrons   70.0436545380139     
 soft         electrons  0.000000000000000E+000
 augmentation electrons   70.0436545380139     
 soft         electrons  0.000000000000000E+000
 augmentation electrons   70.0436545380139     
 soft         electrons  0.000000000000000E+000
 augmentation electrons   70.0436545380139     
 soft         electrons  0.000000000000000E+000
 augmentation electrons   70.0436545380139     
 soft         electrons  0.000000000000000E+000
 augmentation electrons   70.0436545380139     
 soft         electrons  0.000000000000000E+000
 augmentation electrons   70.0436545380139     
 soft         electrons  0.000000000000000E+000
 augmentation electrons   70.0436545380139     
 soft         electrons  0.000000000000000E+000
 augmentation electrons   70.0436545380139     
 soft         electrons  0.000000000000000E+000
 augmentation electrons   70.0436545380139     
 soft         electrons  0.000000000000000E+000
 augmentation electrons   70.0436545380139     
 soft         electrons  0.000000000000000E+000
 augmentation electrons   70.0436545380139     
 soft         electrons  0.000000000000000E+000
 augmentation electrons   70.0436545380139     
 soft         electrons  0.000000000000000E+000
 augmentation electrons   70.0436545380139     
 soft         electrons  0.000000000000000E+000
 augmentation electrons   70.0436545380139     
 soft         electrons  0.000000000000000E+000
 augmentation electrons   70.0436545380139     
 soft         electrons  0.000000000000000E+000
 augmentation electrons   70.0436545380139     
 soft         electrons  0.000000000000000E+000
 augmentation electrons   70.0436545380139     
 soft         electrons  0.000000000000000E+000
 augmentation electrons   70.0436545380139     
 soft         electrons  0.000000000000000E+000
 augmentation electrons   70.0436545380139     
 soft         electrons  0.000000000000000E+000
 augmentation electrons   70.0436545380139     
 soft         electrons  0.000000000000000E+000
 augmentation electrons   70.0436545380139     
 soft         electrons  0.000000000000000E+000
 augmentation electrons   70.0436545380139     
 soft         electrons  0.000000000000000E+000
 augmentation electrons   70.0436545380139     
 soft         electrons  0.000000000000000E+000
 augmentation electrons   70.0436545380139     
 soft         electrons  0.000000000000000E+000
 augmentation electrons   70.0436545380139     
 soft         electrons  0.000000000000000E+000
 augmentation electrons   70.0436545380139     
 augmentation electrons   70.0436545380139     
 soft         electrons  0.000000000000000E+000
 soft         electrons  0.000000000000000E+000
 total        electrons   70.0436545380139     
 total        electrons   70.0436545380139     
 total        electrons   70.0436545380139     
 total        electrons   70.0436545380139     
 total        electrons   70.0436545380139     
 total        electrons   70.0436545380139     
 total        electrons   70.0436545380139     
 total        electrons   70.0436545380139     
 total        electrons   70.0436545380139     
 total        electrons   70.0436545380139     
 total        electrons   70.0436545380139     
 total        electrons   70.0436545380139     
 total        electrons   70.0436545380139     
 total        electrons   70.0436545380139     
 total        electrons   70.0436545380139     
 total        electrons   70.0436545380139     
 total        electrons   70.0436545380139     
 total        electrons   70.0436545380139     
 total        electrons   70.0436545380139     
 total        electrons   70.0436545380139     
 total        electrons   70.0436545380139     
 total        electrons   70.0436545380139     
 total        electrons   70.0436545380139     
 total        electrons   70.0436545380139     
 total        electrons   70.0436545380139     
 total        electrons   70.0436545380139     
 total        electrons   70.0436545380139     
 total        electrons   70.0436545380139     
 augmentation electrons   69.3958360080139     
 soft         electrons  0.000000000000000E+000
 augmentation electrons   69.3958360080139     
 soft         electrons  0.000000000000000E+000
 augmentation electrons   69.3958360080139     
 soft         electrons  0.000000000000000E+000
 augmentation electrons   69.3958360080139     
 soft         electrons  0.000000000000000E+000
 augmentation electrons   69.3958360080139     
 soft         electrons  0.000000000000000E+000
 augmentation electrons   69.3958360080139     
 soft         electrons  0.000000000000000E+000
 augmentation electrons   69.3958360080139     
 soft         electrons  0.000000000000000E+000
 augmentation electrons   69.3958360080139     
 soft         electrons  0.000000000000000E+000
 augmentation electrons   69.3958360080139     
 soft         electrons  0.000000000000000E+000
 augmentation electrons   69.3958360080139     
 soft         electrons  0.000000000000000E+000
 augmentation electrons   69.3958360080139     
 soft         electrons  0.000000000000000E+000
 augmentation electrons   69.3958360080139     
 soft         electrons  0.000000000000000E+000
 augmentation electrons   69.3958360080139     
 soft         electrons  0.000000000000000E+000
 augmentation electrons   69.3958360080139     
 soft         electrons  0.000000000000000E+000
 augmentation electrons   69.3958360080139     
 soft         electrons  0.000000000000000E+000
 augmentation electrons   69.3958360080139     
 soft         electrons  0.000000000000000E+000
 augmentation electrons   69.3958360080139     
 soft         electrons  0.000000000000000E+000
 augmentation electrons   69.3958360080139     
 soft         electrons  0.000000000000000E+000
 augmentation electrons   69.3958360080139     
 augmentation electrons   69.3958360080139     
 soft         electrons  0.000000000000000E+000
 augmentation electrons   69.3958360080139     
 soft         electrons  0.000000000000000E+000
 augmentation electrons   69.3958360080139     
 soft         electrons  0.000000000000000E+000
 augmentation electrons   69.3958360080139     
 soft         electrons  0.000000000000000E+000
 augmentation electrons   69.3958360080139     
 soft         electrons  0.000000000000000E+000
 augmentation electrons   69.3958360080139     
 soft         electrons  0.000000000000000E+000
 augmentation electrons   69.3958360080139     
 soft         electrons  0.000000000000000E+000
 augmentation electrons   69.3958360080139     
 soft         electrons  0.000000000000000E+000
 augmentation electrons   69.3958360080139     
 soft         electrons  0.000000000000000E+000
 soft         electrons  0.000000000000000E+000
 total        electrons   69.3958360080139     
 total        electrons   69.3958360080139     
 total        electrons   69.3958360080139     
 total        electrons   69.3958360080139     
 total        electrons   69.3958360080139     
 total        electrons   69.3958360080139     
 total        electrons   69.3958360080139     
 total        electrons   69.3958360080139     
 total        electrons   69.3958360080139     
 total        electrons   69.3958360080139     
 total        electrons   69.3958360080139     
 total        electrons   69.3958360080139     
 total        electrons   69.3958360080139     
 total        electrons   69.3958360080139     
 total        electrons   69.3958360080139     
 total        electrons   69.3958360080139     
 total        electrons   69.3958360080139     
 total        electrons   69.3958360080139     
 total        electrons   69.3958360080139     
 total        electrons   69.3958360080139     
 total        electrons   69.3958360080139     
 total        electrons   69.3958360080139     
 total        electrons   69.3958360080139     
 total        electrons   69.3958360080139     
 total        electrons   69.3958360080139     
 total        electrons   69.3958360080139     
 total        electrons   69.3958360080139     
 total        electrons   69.3958360080139     
 charge-density read from file: hBN                                     
 magnetization density read from file 1
 entering main loop
       N       E                     dE             d eps       ncg     rms          rms(c)
DAV:   1    -0.302721239542E+03   -0.30272E+03   -0.23689E+03 19040   0.740E+01    0.529E+00
DAV:   2    -0.309499733247E+03   -0.67785E+01   -0.70832E+01 21112   0.123E+01    0.432E+00
DAV:   3    -0.309715037300E+03   -0.21530E+00   -0.18561E+00 21868   0.260E+00    0.294E+00
DAV:   4    -0.309832984035E+03   -0.11795E+00   -0.10186E+00 23996   0.270E+00    0.116E+00
DAV:   5    -0.309928436552E+03   -0.95453E-01   -0.15527E-01 20188   0.769E-01    0.598E-01
DAV:   6    -0.309959404087E+03   -0.30968E-01   -0.99326E-02 20020   0.603E-01    0.206E-01
DAV:   7    -0.309981241218E+03   -0.21837E-01   -0.13050E-02 20384   0.208E-01    0.733E-02
DAV:   8    -0.309988600584E+03   -0.73594E-02   -0.35055E-03 21196   0.868E-02    0.421E-02
DAV:   9    -0.309998567235E+03   -0.99667E-02   -0.81955E-04 21476   0.505E-02    0.154E-02
DAV:  10    -0.310001536837E+03   -0.29696E-02   -0.83397E-05 17640   0.162E-02    0.117E-02
DAV:  11    -0.310004841306E+03   -0.33045E-02   -0.76036E-05 17780   0.125E-02    0.769E-03
DAV:  12    -0.310008195381E+03   -0.33541E-02   -0.12044E-04 17668   0.130E-02    0.565E-03
DAV:  13    -0.310009771165E+03   -0.15758E-02   -0.21483E-05 17864   0.687E-03    0.437E-03
DAV:  14    -0.310011315799E+03   -0.15446E-02   -0.23146E-05 17024   0.492E-03    0.251E-03
DAV:  15    -0.310011745181E+03   -0.42938E-03   -0.59118E-06 17472   0.279E-03    0.132E-03
DAV:  16    -0.310011837484E+03   -0.92303E-04   -0.11359E-06 17080   0.129E-03
   1 F= -.31001184E+03 E0= -.31000469E+03  d E =-.310012E+03  mag=     0.5754
 curvature:   0.00 expect dE= 0.000E+00 dE for cont linesearch  0.000E+00
 trial: gam= 0.00000 g(F)=  0.803E-01 g(S)=  0.000E+00 ort = 0.000E+00 (trialstep = 0.100E+01)
 search vector abs. value=  0.803E-01
 bond charge predicted
       N       E                     dE             d eps       ncg     rms          rms(c)
DAV:   1    -0.310023070414E+03   -0.11325E-01   -0.20731E+01 19068   0.801E+00    0.978E-01
DAV:   2    -0.310015146935E+03    0.79235E-02   -0.14757E-01 21812   0.742E-01    0.410E-01
DAV:   3    -0.310011774556E+03    0.33724E-02   -0.77864E-03 19852   0.180E-01    0.197E-01
DAV:   4    -0.310013843974E+03   -0.20694E-02   -0.31695E-03 21224   0.105E-01    0.503E-02
DAV:   5    -0.310016228111E+03   -0.23841E-02   -0.85713E-04 20216   0.500E-02    0.254E-02
DAV:   6    -0.310016110845E+03    0.11727E-03   -0.41931E-04 19768   0.292E-02    0.185E-02
DAV:   7    -0.310016606383E+03   -0.49554E-03   -0.91715E-05 21840   0.209E-02    0.678E-03
DAV:   8    -0.310016733880E+03   -0.12750E-03   -0.37250E-05 19488   0.919E-03    0.466E-03
DAV:   9    -0.310016980591E+03   -0.24671E-03   -0.11569E-05 18368   0.573E-03    0.210E-03
DAV:  10    -0.310017197451E+03   -0.21686E-03   -0.21809E-05 17976   0.590E-03    0.183E-03
DAV:  11    -0.310017261454E+03   -0.64003E-04   -0.10889E-05 17976   0.413E-03
   2 F= -.31001726E+03 E0= -.31001016E+03  d E =-.542397E-02  mag=     0.5602
 trial-energy change:   -0.005424  1 .order   -0.006664   -0.080299    0.066971
 step:   0.5327(harm=  0.5452)  dis= 0.03258  next Energy=  -310.033037 (dE=-0.212E-01)
 bond charge predicted
       N       E                     dE             d eps       ncg     rms          rms(c)
DAV:   1    -0.310034589610E+03   -0.17392E-01   -0.45740E+00 20860   0.373E+00    0.443E-01
DAV:   2    -0.310032484185E+03    0.21054E-02   -0.26431E-02 21084   0.332E-01    0.193E-01
DAV:   3    -0.310028834301E+03    0.36499E-02   -0.41435E-03 19824   0.117E-01    0.855E-02
DAV:   4    -0.310029216059E+03   -0.38176E-03   -0.93425E-04 21056   0.580E-02    0.216E-02
DAV:   5    -0.310031616008E+03   -0.23999E-02   -0.89766E-04 20916   0.379E-02    0.104E-02
DAV:   6    -0.310032910464E+03   -0.12945E-02   -0.33173E-04 19852   0.216E-02    0.807E-03
DAV:   7    -0.310032883589E+03    0.26875E-04   -0.11830E-05 16856   0.825E-03
   3 F= -.31003288E+03 E0= -.31002575E+03  d E =-.210461E-01  mag=     0.5659
 curvature:  -0.27 expect dE=-0.146E-01 dE for cont linesearch -0.154E-05
 trial: gam= 0.65980 g(F)=  0.537E-01 g(S)=  0.000E+00 ort = 0.674E-03 (trialstep = 0.813E+00)
 search vector abs. value=  0.895E-01
 bond charge predicted
       N       E                     dE             d eps       ncg     rms          rms(c)
DAV:   1    -0.310057198071E+03   -0.24288E-01   -0.45477E+00 19320   0.389E+00    0.428E-01
DAV:   2    -0.310059053452E+03   -0.18554E-02   -0.33423E-02 19684   0.338E-01    0.260E-01
DAV:   3    -0.310058505307E+03    0.54815E-03   -0.33926E-03 20244   0.117E-01    0.803E-02
DAV:   4    -0.310058485995E+03    0.19311E-04   -0.43463E-04 20188   0.466E-02
   4 F= -.31005849E+03 E0= -.31005134E+03  d E =-.256024E-01  mag=     0.5656
 trial-energy change:   -0.025602  1 .order   -0.026337   -0.044001   -0.008673
 step:   1.0514(harm=  1.0130)  dis= 0.03870  next Energy=  -310.059737 (dE=-0.269E-01)
 bond charge predicted
       N       E                     dE             d eps       ncg     rms          rms(c)
DAV:   1    -0.310060073627E+03   -0.15683E-02   -0.39012E-01 19068   0.111E+00    0.128E-01
DAV:   2    -0.310059446450E+03    0.62718E-03   -0.35264E-03 20356   0.111E-01    0.789E-02
DAV:   3    -0.310060448407E+03   -0.10020E-02   -0.39878E-04 20552   0.381E-02    0.280E-02
DAV:   4    -0.310060061161E+03    0.38725E-03   -0.10879E-04 18144   0.187E-02    0.127E-02
DAV:   5    -0.310060527393E+03   -0.46623E-03   -0.63183E-05 17360   0.131E-02    0.456E-03
DAV:   6    -0.310060375103E+03    0.15229E-03   -0.44595E-05 17528   0.913E-03    0.221E-03
DAV:   7    -0.310060454217E+03   -0.79115E-04   -0.14395E-05 17220   0.504E-03
   5 F= -.31006045E+03 E0= -.31005331E+03  d E =-.275706E-01  mag=     0.5649
 curvature:  -0.81 expect dE=-0.141E-01 dE for cont linesearch -0.411E-04
 trial: gam= 0.38052 g(F)=  0.174E-01 g(S)=  0.000E+00 ort =-0.213E-02 (trialstep = 0.861E+00)
 search vector abs. value=  0.288E-01
 bond charge predicted
       N       E                     dE             d eps       ncg     rms          rms(c)
DAV:   1    -0.310072631678E+03   -0.12257E-01   -0.22207E+00 18648   0.263E+00    0.266E-01
DAV:   2    -0.310073707641E+03   -0.10760E-02   -0.19543E-02 20216   0.256E-01    0.149E-01
DAV:   3    -0.310073594784E+03    0.11286E-03   -0.11243E-03 19936   0.628E-02    0.539E-02
DAV:   4    -0.310074097178E+03   -0.50239E-03   -0.24584E-04 20076   0.284E-02    0.138E-02
DAV:   5    -0.310073924435E+03    0.17274E-03   -0.83118E-05 17388   0.148E-02    0.718E-03
DAV:   6    -0.310074114003E+03   -0.18957E-03   -0.23513E-05 18256   0.765E-03    0.347E-03
DAV:   7    -0.310074156710E+03   -0.42707E-04   -0.87792E-06 16912   0.505E-03
   6 F= -.31007416E+03 E0= -.31006701E+03  d E =-.137025E-01  mag=     0.5663
 ZBRENT: can't locate minimum, use default step
 trial-energy change:   -0.013702  1 .order   -0.013523   -0.014322   -0.012724
 step:   3.4437(harm=  7.7135)  dis= 0.07038  next Energy=  -310.124616 (dE=-0.642E-01)
 bond charge predicted
       N       E                     dE             d eps       ncg     rms          rms(c)
DAV:   1    -0.310090850822E+03   -0.16737E-01   -0.19919E+01 18480   0.782E+00    0.810E-01
DAV:   2    -0.310104067041E+03   -0.13216E-01   -0.19813E-01 20216   0.776E-01    0.451E-01
DAV:   3    -0.310104008037E+03    0.59004E-04   -0.88656E-03 19936   0.176E-01    0.190E-01
DAV:   4    -0.310105106509E+03   -0.10985E-02   -0.22785E-03 20580   0.897E-02    0.481E-02
DAV:   5    -0.310105137597E+03   -0.31088E-04   -0.44250E-04 19684   0.429E-02
   7 F= -.31010514E+03 E0= -.31009799E+03  d E =-.446834E-01  mag=     0.5704
 curvature:  -4.08 expect dE=-0.886E-01 dE for cont linesearch -0.135E-01
 ZBRENT: increasing intervall
 opt :   8.6093  next Energy=  -310.129701 (dE=-0.692E-01)
 bond charge predicted
       N       E                     dE             d eps       ncg     rms          rms(c)
DAV:   1    -0.310051599452E+03    0.53507E-01   -0.79246E+01 18368   0.154E+01    0.165E+00
DAV:   2    -0.310132234579E+03   -0.80635E-01   -0.10512E+00 20076   0.160E+00    0.916E-01
DAV:   3    -0.310131181178E+03    0.10534E-02   -0.35190E-02 20244   0.352E-01    0.447E-01
DAV:   4    -0.310133358689E+03   -0.21775E-02   -0.11060E-02 22344   0.198E-01    0.124E-01
DAV:   5    -0.310130681214E+03    0.26775E-02   -0.56708E-03 19656   0.119E-01    0.493E-02
DAV:   6    -0.310133112576E+03   -0.24314E-02   -0.18786E-03 21252   0.569E-02    0.326E-02
DAV:   7    -0.310134070123E+03   -0.95755E-03   -0.21451E-04 20384   0.267E-02    0.913E-03
DAV:   8    -0.310134496883E+03   -0.42676E-03   -0.30072E-04 18564   0.181E-02    0.486E-03
DAV:   9    -0.310134596760E+03   -0.99877E-04   -0.69646E-06 18228   0.505E-03
   8 F= -.31013460E+03 E0= -.31012749E+03  d E =-.741425E-01  mag=     0.5823
 curvature:  -7.41 expect dE=-0.608E+00 dE for cont linesearch -0.607E-03
 trial: gam= 4.41746 g(F)=  0.821E-01 g(S)=  0.000E+00 ort = 0.154E-02 (trialstep = 0.106E+00)
 search vector abs. value=  0.657E+00
 bond charge predicted
       N       E                     dE             d eps       ncg     rms          rms(c)
DAV:   1    -0.310142418234E+03   -0.79214E-02   -0.46582E-01 20020   0.966E-01    0.112E-01
DAV:   2    -0.310142931494E+03   -0.51326E-03   -0.56837E-03 20104   0.115E-01    0.626E-02
DAV:   3    -0.310142635754E+03    0.29574E-03   -0.38130E-04 20972   0.326E-02    0.222E-02
DAV:   4    -0.310142971156E+03   -0.33540E-03   -0.12462E-04 18172   0.176E-02    0.915E-03
DAV:   5    -0.310142908579E+03    0.62577E-04   -0.87369E-05 16716   0.132E-02
   9 F= -.31014291E+03 E0= -.31013581E+03  d E =-.831182E-02  mag=     0.5853
 ZBRENT: can't locate minimum, use default step
 trial-energy change:   -0.008312  1 .order   -0.008327   -0.009381   -0.007273
 step:   0.4222(harm=  0.4697)  dis= 0.04526  next Energy=  -310.155469 (dE=-0.209E-01)
 bond charge predicted
       N       E                     dE             d eps       ncg     rms          rms(c)
DAV:   1    -0.310149263151E+03   -0.62920E-02   -0.42329E+00 18480   0.292E+00    0.338E-01
DAV:   2    -0.310153820014E+03   -0.45569E-02   -0.52919E-02 20160   0.350E-01    0.192E-01
DAV:   3    -0.310153354881E+03    0.46513E-03   -0.33736E-03 20720   0.100E-01    0.702E-02
DAV:   4    -0.310153815123E+03   -0.46024E-03   -0.10358E-03 20356   0.506E-02    0.305E-02
DAV:   5    -0.310154213153E+03   -0.39803E-03   -0.48065E-04 19572   0.328E-02    0.104E-02
DAV:   6    -0.310154839336E+03   -0.62618E-03   -0.61601E-05 18900   0.108E-02    0.579E-03
DAV:   7    -0.310155223243E+03   -0.38391E-03   -0.10491E-04 18816   0.107E-02    0.377E-03
DAV:   8    -0.310155291288E+03   -0.68045E-04   -0.96633E-06 17052   0.434E-03
  10 F= -.31015529E+03 E0= -.31014823E+03  d E =-.206945E-01  mag=     0.5941
 curvature:  -1.71 expect dE=-0.516E-01 dE for cont linesearch -0.100E-03
 ZBRENT: extrapolating
 opt :   0.4536  next Energy=  -310.155389 (dE=-0.208E-01)
 bond charge predicted
       N       E                     dE             d eps       ncg     rms          rms(c)
DAV:   1    -0.310155308856E+03   -0.85613E-04   -0.41715E-02 19684   0.284E-01    0.349E-02
DAV:   2    -0.310155363004E+03   -0.54148E-04   -0.51236E-04 20972   0.345E-02
  11 F= -.31015536E+03 E0= -.31014831E+03  d E =-.207662E-01  mag=     0.5949
 curvature:  -1.66 expect dE=-0.577E-01 dE for cont linesearch -0.187E-04
 trial: gam= 0.58335 g(F)=  0.347E-01 g(S)=  0.000E+00 ort =-0.272E-02 (trialstep = 0.175E+00)
 search vector abs. value=  0.255E+00
 bond charge predicted
       N       E                     dE             d eps       ncg     rms          rms(c)
DAV:   1    -0.310159827974E+03   -0.45191E-02   -0.93479E-01 19124   0.133E+00    0.124E-01
DAV:   2    -0.310160933647E+03   -0.11057E-02   -0.11963E-02 20104   0.157E-01    0.654E-02
DAV:   3    -0.310161116498E+03   -0.18285E-03   -0.44057E-04 19684   0.322E-02    0.309E-02
DAV:   4    -0.310160887930E+03    0.22857E-03   -0.43235E-04 20328   0.263E-02    0.771E-03
DAV:   5    -0.310161250369E+03   -0.36244E-03   -0.24416E-04 17556   0.150E-02    0.460E-03
DAV:   6    -0.310161275621E+03   -0.25252E-04   -0.52284E-06 15456   0.434E-03
  12 F= -.31016128E+03 E0= -.31015424E+03  d E =-.591262E-02  mag=     0.5978
 ZBRENT: can't locate minimum, use default step
 trial-energy change:   -0.005913  1 .order   -0.005709   -0.005805   -0.005613
 step:   0.7007(harm=  5.2915)  dis= 0.05157  next Energy=  -310.243045 (dE=-0.877E-01)
 bond charge predicted
       N       E                     dE             d eps       ncg     rms          rms(c)
DAV:   1    -0.310162927647E+03   -0.16773E-02   -0.84540E+00 18452   0.403E+00    0.357E-01
DAV:   2    -0.310173725455E+03   -0.10798E-01   -0.11586E-01 18592   0.476E-01    0.188E-01
DAV:   3    -0.310174548311E+03   -0.82286E-03   -0.38530E-03 21084   0.914E-02    0.933E-02
DAV:   4    -0.310173314188E+03    0.12341E-02   -0.19530E-03 20524   0.650E-02    0.208E-02
DAV:   5    -0.310174969995E+03   -0.16558E-02   -0.91023E-04 20412   0.316E-02    0.130E-02
DAV:   6    -0.310175065381E+03   -0.95386E-04   -0.41619E-05 17892   0.109E-02
  13 F= -.31017507E+03 E0= -.31016810E+03  d E =-.197024E-01  mag=     0.6041
 curvature:  -3.97 expect dE=-0.684E-01 dE for cont linesearch -0.680E-02
 ZBRENT: increasing intervall
 opt :   1.7517  next Energy=  -310.185321 (dE=-0.300E-01)
 bond charge predicted
       N       E                     dE             d eps       ncg     rms          rms(c)
DAV:   1    -0.310124031663E+03    0.50938E-01   -0.34629E+01 18424   0.840E+00    0.725E-01
DAV:   2    -0.310181785124E+03   -0.57753E-01   -0.61367E-01 19628   0.102E+00    0.373E-01
DAV:   3    -0.310184672932E+03   -0.28878E-02   -0.18405E-02 21196   0.192E-01    0.198E-01
DAV:   4    -0.310184419026E+03    0.25391E-03   -0.32980E-03 19992   0.106E-01    0.456E-02
DAV:   5    -0.310185899363E+03   -0.14803E-02   -0.77367E-04 19908   0.405E-02    0.238E-02
DAV:   6    -0.310185917274E+03   -0.17911E-04   -0.18467E-04 20216   0.204E-02
  14 F= -.31018592E+03 E0= -.31017915E+03  d E =-.305543E-01  mag=     0.6166
 curvature:  -5.99 expect dE=-0.118E+00 dE for cont linesearch -0.342E-04
 trial: gam= 0.48103 g(F)=  0.196E-01 g(S)=  0.000E+00 ort = 0.121E-02 (trialstep = 0.490E+00)
 search vector abs. value=  0.799E-01
 bond charge predicted
       N       E                     dE             d eps       ncg     rms          rms(c)
DAV:   1    -0.310191013224E+03   -0.51139E-02   -0.33721E+00 18368   0.264E+00    0.229E-01
DAV:   2    -0.310194558282E+03   -0.35451E-02   -0.38996E-02 19740   0.288E-01    0.116E-01
DAV:   3    -0.310194910778E+03   -0.35250E-03   -0.13107E-03 19544   0.543E-02    0.572E-02
DAV:   4    -0.310194777827E+03    0.13295E-03   -0.52689E-04 19432   0.341E-02    0.124E-02
DAV:   5    -0.310195215302E+03   -0.43747E-03   -0.21918E-04 17668   0.164E-02    0.725E-03
DAV:   6    -0.310195279743E+03   -0.64442E-04   -0.20549E-05 17108   0.731E-03
  15 F= -.31019528E+03 E0= -.31018853E+03  d E =-.936247E-02  mag=     0.6210
 ZBRENT: can't locate minimum, use default step
 trial-energy change:   -0.009362  1 .order   -0.008934   -0.009920   -0.007949
 step:   1.9619(harm=  2.4680)  dis= 0.09215  next Energy=  -310.210876 (dE=-0.250E-01)
 bond charge predicted
       N       E                     dE             d eps       ncg     rms          rms(c)
DAV:   1    -0.310165557847E+03    0.29657E-01   -0.30774E+01 18368   0.817E+00    0.710E-01
DAV:   2    -0.310206518274E+03   -0.40960E-01   -0.45911E-01 20104   0.921E-01    0.353E-01
DAV:   3    -0.310208028611E+03   -0.15103E-02   -0.13465E-02 20356   0.171E-01    0.185E-01
DAV:   4    -0.310208083023E+03   -0.54412E-04   -0.24457E-03 19796   0.891E-02    0.404E-02
DAV:   5    -0.310209233188E+03   -0.11502E-02   -0.50392E-04 19768   0.339E-02    0.203E-02
DAV:   6    -0.310209056247E+03    0.17694E-03   -0.29328E-04 19684   0.206E-02    0.103E-02
DAV:   7    -0.310209339106E+03   -0.28286E-03   -0.54842E-05 17136   0.862E-03    0.395E-03
DAV:   8    -0.310209622838E+03   -0.28373E-03   -0.62965E-05 18424   0.799E-03    0.216E-03
DAV:   9    -0.310209652263E+03   -0.29425E-04   -0.54515E-06 16940   0.285E-03
  16 F= -.31020965E+03 E0= -.31020299E+03  d E =-.237350E-01  mag=     0.6269
 curvature:  -4.55 expect dE=-0.117E+00 dE for cont linesearch -0.964E-03
 trial: gam= 1.16464 g(F)=  0.257E-01 g(S)=  0.000E+00 ort = 0.411E-02 (trialstep = 0.436E+00)
 search vector abs. value=  0.144E+00
 bond charge predicted
       N       E                     dE             d eps       ncg     rms          rms(c)
DAV:   1    -0.310211408610E+03   -0.17858E-02   -0.30231E+00 19992   0.198E+00    0.221E-01
DAV:   2    -0.310215342561E+03   -0.39340E-02   -0.40851E-02 19152   0.251E-01    0.114E-01
DAV:   3    -0.310215648438E+03   -0.30588E-03   -0.18657E-03 20916   0.662E-02    0.494E-02
DAV:   4    -0.310214873002E+03    0.77544E-03   -0.81854E-04 18760   0.373E-02    0.216E-02
DAV:   5    -0.310215420392E+03   -0.54739E-03   -0.15908E-04 18340   0.162E-02    0.682E-03
DAV:   6    -0.310215525446E+03   -0.10505E-03   -0.83844E-06 18872   0.500E-03    0.336E-03
DAV:   7    -0.310215879005E+03   -0.35356E-03   -0.69138E-05 18508   0.834E-03    0.193E-03
DAV:   8    -0.310215985425E+03   -0.10642E-03   -0.17639E-05 18984   0.439E-03    0.107E-03
DAV:   9    -0.310216042780E+03   -0.57355E-04   -0.36998E-06 15736   0.219E-03
  17 F= -.31021604E+03 E0= -.31020944E+03  d E =-.639052E-02  mag=     0.6309
 trial-energy change:   -0.006391  1 .order   -0.005967   -0.013321    0.001388
 step:   0.4008(harm=  0.3951)  dis= 0.02420  next Energy=  -310.216099 (dE=-0.645E-02)
 bond charge predicted
       N       E                     dE             d eps       ncg     rms          rms(c)
DAV:   1    -0.310215296444E+03    0.68898E-03   -0.20141E-02 19852   0.161E-01    0.183E-02
DAV:   2    -0.310215991493E+03   -0.69505E-03   -0.50577E-04 19376   0.279E-02    0.975E-03
DAV:   3    -0.310216151170E+03   -0.15968E-03   -0.27768E-05 18536   0.795E-03    0.456E-03
DAV:   4    -0.310216173795E+03   -0.22625E-04   -0.32741E-06 16352   0.304E-03
  18 F= -.31021617E+03 E0= -.31020957E+03  d E =-.652153E-02  mag=     0.6310
 curvature:  -0.91 expect dE=-0.169E-02 dE for cont linesearch -0.317E-06
 trial: gam= 0.30116 g(F)=  0.185E-02 g(S)=  0.000E+00 ort =-0.224E-03 (trialstep = 0.429E+00)
 search vector abs. value=  0.147E-01
 bond charge predicted
       N       E                     dE             d eps       ncg     rms          rms(c)
DAV:   1    -0.310216128692E+03    0.22478E-04   -0.45270E-01 19348   0.884E-01    0.715E-02
DAV:   2    -0.310216714946E+03   -0.58625E-03   -0.54008E-03 21588   0.989E-02    0.384E-02
DAV:   3    -0.310216803396E+03   -0.88451E-04   -0.18262E-04 19376   0.182E-02
  19 F= -.31021680E+03 E0= -.31021021E+03  d E =-.629601E-03  mag=     0.6314
 trial-energy change:   -0.000630  1 .order   -0.000632   -0.000766   -0.000498
 step:   1.2234(harm=  1.2234)  dis= 0.02618  next Energy=  -310.217266 (dE=-0.109E-02)
 bond charge predicted
       N       E                     dE             d eps       ncg     rms          rms(c)
DAV:   1    -0.310215101471E+03    0.16135E-02   -0.15519E+00 19096   0.163E+00    0.134E-01
DAV:   2    -0.310217003759E+03   -0.19023E-02   -0.18567E-02 18816   0.183E-01    0.723E-02
DAV:   3    -0.310217184838E+03   -0.18108E-03   -0.61208E-04 20944   0.332E-02    0.348E-02
DAV:   4    -0.310217090728E+03    0.94110E-04   -0.20519E-04 19712   0.198E-02
  20 F= -.31021709E+03 E0= -.31021053E+03  d E =-.916933E-03  mag=     0.6326
 curvature:  -5.05 expect dE=-0.108E-01 dE for cont linesearch -0.102E-06
 trial: gam= 0.32329 g(F)=  0.214E-02 g(S)=  0.000E+00 ort = 0.173E-04 (trialstep = 0.588E+00)
 search vector abs. value=  0.370E-02
 bond charge predicted
       N       E                     dE             d eps       ncg     rms          rms(c)
DAV:   1    -0.310217571527E+03   -0.38669E-03   -0.20136E-01 19628   0.664E-01    0.974E-02
DAV:   2    -0.310217660852E+03   -0.89325E-04   -0.28141E-03 20496   0.828E-02    0.383E-02
DAV:   3    -0.310217719195E+03   -0.58343E-04   -0.13839E-04 21028   0.203E-02
  21 F= -.31021772E+03 E0= -.31021116E+03  d E =-.628467E-03  mag=     0.6330
 trial-energy change:   -0.000628  1 .order   -0.000389   -0.001264    0.000487
 step:   0.4245(harm=  0.4245)  dis= 0.00331  next Energy=  -310.217547 (dE=-0.456E-03)
 bond charge predicted
       N       E                     dE             d eps       ncg     rms          rms(c)
DAV:   1    -0.310217564638E+03    0.96214E-04   -0.15974E-02 19628   0.188E-01    0.230E-02
DAV:   2    -0.310217831116E+03   -0.26648E-03   -0.38442E-04 20384   0.279E-02    0.977E-03
DAV:   3    -0.310217837119E+03   -0.60024E-05   -0.29909E-05 17640   0.809E-03
  22 F= -.31021784E+03 E0= -.31021128E+03  d E =-.746391E-03  mag=     0.6332
 curvature:  -0.36 expect dE=-0.443E-03 dE for cont linesearch -0.157E-06
 trial: gam= 0.59397 g(F)=  0.121E-02 g(S)=  0.000E+00 ort = 0.398E-04 (trialstep = 0.555E+00)
 search vector abs. value=  0.256E-02
 bond charge predicted
       N       E                     dE             d eps       ncg     rms          rms(c)
DAV:   1    -0.310218262668E+03   -0.43155E-03   -0.48813E-02 20048   0.248E-01    0.213E-02
DAV:   2    -0.310218352886E+03   -0.90218E-04   -0.66191E-04 18816   0.304E-02
  23 F= -.31021835E+03 E0= -.31021182E+03  d E =-.515768E-03  mag=     0.6336
 trial-energy change:   -0.000516  1 .order   -0.000460   -0.000687   -0.000233
 step:   0.8403(harm=  0.8403)  dis= 0.00494  next Energy=  -310.218357 (dE=-0.520E-03)
 bond charge predicted
       N       E                     dE             d eps       ncg     rms          rms(c)
DAV:   1    -0.310218472316E+03   -0.20965E-03   -0.13558E-02 19852   0.130E-01    0.159E-02
DAV:   2    -0.310218500587E+03   -0.28271E-04   -0.20057E-04 18452   0.170E-02
  24 F= -.31021850E+03 E0= -.31021198E+03  d E =-.663468E-03  mag=     0.6341
 curvature:  -0.87 expect dE=-0.231E-03 dE for cont linesearch -0.175E-04
 ZBRENT: increasing intervall
 opt :   1.4103  next Energy=  -310.218520 (dE=-0.683E-03)
 bond charge predicted
       N       E                     dE             d eps       ncg     rms          rms(c)
DAV:   1    -0.310218414272E+03    0.58043E-04   -0.52340E-02 19768   0.256E-01    0.247E-02
DAV:   2    -0.310218509578E+03   -0.95305E-04   -0.70345E-04 18872   0.315E-02
  25 F= -.31021851E+03 E0= -.31021201E+03  d E =-.672459E-03  mag=     0.6348
 curvature:  -0.99 expect dE=-0.524E-03 dE for cont linesearch -0.844E-04
 ZBRENT: bracketing found
 ZBRENT: interpolating
 opt :   1.0265  next Energy=  -310.218522 (dE=-0.685E-03)
 bond charge predicted
       N       E                     dE             d eps       ncg     rms          rms(c)
DAV:   1    -0.310217783411E+03    0.63086E-03   -0.22653E-02 19068   0.171E-01    0.111E-02
DAV:   2    -0.310218470488E+03   -0.68708E-03   -0.41783E-04 19572   0.256E-02    0.555E-03
DAV:   3    -0.310218444529E+03    0.25959E-04   -0.20615E-05 18480   0.654E-03
  26 F= -.31021844E+03 E0= -.31021193E+03  d E =-.607410E-03  mag=     0.6351
 curvature:  -0.25 expect dE=-0.638E-04 dE for cont linesearch -0.397E-05
 ZBRENT: bisectioning
 opt :   1.2184  next Energy=  -310.218481 (dE=-0.644E-03)
 bond charge predicted
       N       E                     dE             d eps       ncg     rms          rms(c)
DAV:   1    -0.310218581800E+03   -0.11131E-03   -0.57984E-03 19236   0.857E-02    0.674E-03
DAV:   2    -0.310218599231E+03   -0.17431E-04   -0.88262E-05 20188   0.111E-02
  27 F= -.31021860E+03 E0= -.31021209E+03  d E =-.762112E-03  mag=     0.6352
 curvature:  -2.28 expect dE=-0.749E-03 dE for cont linesearch -0.140E-04
 ZBRENT: interpolating
 opt :   1.1450  next Energy=  -310.218604 (dE=-0.767E-03)
 bond charge predicted
       N       E                     dE             d eps       ncg     rms          rms(c)
DAV:   1    -0.310218597316E+03   -0.15516E-04   -0.79513E-04 19964   0.321E-02    0.183E-03
DAV:   2    -0.310218603013E+03   -0.56969E-05   -0.11179E-05 18396   0.462E-03
  28 F= -.31021860E+03 E0= -.31021210E+03  d E =-.765894E-03  mag=     0.6353
 curvature:  -0.75 expect dE=-0.213E-03 dE for cont linesearch -0.119E-05
 ZBRENT: interpolating
 opt :   1.1698  next Energy=  -310.218604 (dE=-0.767E-03)
 bond charge predicted
       N       E                     dE             d eps       ncg     rms          rms(c)
DAV:   1    -0.310218608302E+03   -0.10986E-04   -0.91451E-05 17892   0.111E-02    0.753E-04
DAV:   2    -0.310218610445E+03   -0.21432E-05   -0.14299E-06 15204   0.211E-03
  29 F= -.31021861E+03 E0= -.31021210E+03  d E =-.773326E-03  mag=     0.6354
 curvature:  -0.50 expect dE=-0.147E-03 dE for cont linesearch -0.290E-08
 trial: gam= 0.22139 g(F)=  0.296E-03 g(S)=  0.000E+00 ort =-0.387E-05 (trialstep = 0.678E+00)
 search vector abs. value=  0.419E-03
 bond charge predicted
       N       E                     dE             d eps       ncg     rms          rms(c)
DAV:   1    -0.310218732216E+03   -0.12391E-03   -0.92583E-03 19208   0.145E-01    0.240E-02
DAV:   2    -0.310218732536E+03   -0.32082E-06   -0.10145E-04 19376   0.168E-02
  30 F= -.31021873E+03 E0= -.31021223E+03  d E =-.122092E-03  mag=     0.6355
 trial-energy change:   -0.000122  1 .order   -0.000137   -0.000200   -0.000074
 step:   1.0744(harm=  1.0744)  dis= 0.00342  next Energy=  -310.218769 (dE=-0.158E-03)
 bond charge predicted
       N       E                     dE             d eps       ncg     rms          rms(c)
DAV:   1    -0.310218769863E+03   -0.37648E-04   -0.31562E-03 20692   0.850E-02    0.168E-02
DAV:   2    -0.310218762805E+03    0.70584E-05   -0.36814E-05 17640   0.996E-03
  31 F= -.31021876E+03 E0= -.31021226E+03  d E =-.152360E-03  mag=     0.6357
 curvature:  -0.76 expect dE=-0.486E-03 dE for cont linesearch -0.101E-05
 trial: gam= 2.05156 g(F)=  0.635E-03 g(S)=  0.000E+00 ort = 0.236E-04 (trialstep = 0.127E+00)
 search vector abs. value=  0.250E-02
 bond charge predicted
       N       E                     dE             d eps       ncg     rms          rms(c)
DAV:   1    -0.310218861022E+03   -0.91159E-04   -0.61168E-03 18536   0.119E-01    0.163E-02
DAV:   2    -0.310218850660E+03    0.10362E-04   -0.49011E-05 19404   0.120E-02
  32 F= -.31021885E+03 E0= -.31021235E+03  d E =-.878552E-04  mag=     0.6358
 ZBRENT: can't locate minimum, use default step
 trial-energy change:   -0.000088  1 .order   -0.000087   -0.000087   -0.000087
 step:   0.5089(harm=120.6147)  dis= 0.00401  next Energy=  -310.259984 (dE=-0.412E-01)
 bond charge predicted
       N       E                     dE             d eps       ncg     rms          rms(c)
DAV:   1    -0.310219075267E+03   -0.21425E-03   -0.54975E-02 18844   0.356E-01    0.469E-02
DAV:   2    -0.310219046558E+03    0.28709E-04   -0.35486E-04 19936   0.321E-02
  33 F= -.31021905E+03 E0= -.31021255E+03  d E =-.283753E-03  mag=     0.6358
 curvature:  -1.39 expect dE=-0.385E-03 dE for cont linesearch -0.105E-03
 trial: gam=-0.07735 g(F)=  0.276E-03 g(S)=  0.000E+00 ort = 0.434E-03 (trialstep = 0.204E+00)
 search vector abs. value=  0.224E-03
 reached required accuracy - stopping structural energy minimisation
 writing wavefunctions
 augmentation electrons   8.25318328399075     
 soft         electrons   134.748253610451     
 augmentation electrons   8.25318328399075     
 soft         electrons   134.748253610451     
 augmentation electrons   8.25318328399075     
 augmentation electrons   8.25318328399075     
 soft         electrons   134.748253610451     
 augmentation electrons   8.25318328399075     
 soft         electrons   134.748253610451     
 augmentation electrons   8.25318328399075     
 soft         electrons   134.748253610451     
 augmentation electrons   8.25318328399075     
 soft         electrons   134.748253610451     
 augmentation electrons   8.25318328399075     
 soft         electrons   134.748253610451     
 augmentation electrons   8.25318328399075     
 soft         electrons   134.748253610451     
 augmentation electrons   8.25318328399075     
 soft         electrons   134.748253610451     
 augmentation electrons   8.25318328399075     
 soft         electrons   134.748253610451     
 augmentation electrons   8.25318328399075     
 soft         electrons   134.748253610451     
 augmentation electrons   8.25318328399075     
 soft         electrons   134.748253610451     
 augmentation electrons   8.25318328399075     
 soft         electrons   134.748253610451     
 augmentation electrons   8.25318328399075     
 soft         electrons   134.748253610451     
 augmentation electrons   8.25318328399075     
 soft         electrons   134.748253610451     
 augmentation electrons   8.25318328399075     
 soft         electrons   134.748253610451     
 augmentation electrons   8.25318328399075     
 soft         electrons   134.748253610451     
 augmentation electrons   8.25318328399075     
 soft         electrons   134.748253610451     
 augmentation electrons   8.25318328399075     
 soft         electrons   134.748253610451     
 augmentation electrons   8.25318328399075     
 soft         electrons   134.748253610451     
 augmentation electrons   8.25318328399075     
 soft         electrons   134.748253610451     
 augmentation electrons   8.25318328399075     
 soft         electrons   134.748253610451     
 augmentation electrons   8.25318328399075     
 soft         electrons   134.748253610451     
 augmentation electrons   8.25318328399075     
 soft         electrons   134.748253610451     
 augmentation electrons   8.25318328399075     
 soft         electrons   134.748253610451     
 augmentation electrons   8.25318328399075     
 soft         electrons   134.748253610451     
 augmentation electrons   8.25318328399075     
 soft         electrons   134.748253610451     
 soft         electrons   134.748253610451     
 total        electrons   143.001436894442     
 total        electrons   143.001436894442     
 total        electrons   143.001436894442     
 total        electrons   143.001436894442     
 total        electrons   143.001436894442     
 total        electrons   143.001436894442     
 total        electrons   143.001436894442     
 total        electrons   143.001436894442     
 total        electrons   143.001436894442     
 total        electrons   143.001436894442     
 total        electrons   143.001436894442     
 total        electrons   143.001436894442     
 total        electrons   143.001436894442     
 total        electrons   143.001436894442     
 total        electrons   143.001436894442     
 total        electrons   143.001436894442     
 total        electrons   143.001436894442     
 total        electrons   143.001436894442     
 total        electrons   143.001436894442     
 total        electrons   143.001436894442     
 total        electrons   143.001436894442     
 total        electrons   143.001436894442     
 total        electrons   143.001436894442     
 total        electrons   143.001436894442     
 total        electrons   143.001436894442     
 total        electrons   143.001436894442     
 total        electrons   143.001436894442     
 total        electrons   143.001436894442     
 augmentation electrons -2.882293090837461E-003
 soft         electrons   134.748253610451     
 augmentation electrons -2.882293090837461E-003
 soft         electrons   134.748253610451     
 augmentation electrons -2.882293090837461E-003
 soft         electrons   134.748253610451     
 augmentation electrons -2.882293090837461E-003
 soft         electrons   134.748253610451     
 augmentation electrons -2.882293090837461E-003
 soft         electrons   134.748253610451     
 augmentation electrons -2.882293090837461E-003
 soft         electrons   134.748253610451     
 augmentation electrons -2.882293090837461E-003
 soft         electrons   134.748253610451     
 augmentation electrons -2.882293090837461E-003
 soft         electrons   134.748253610451     
 augmentation electrons -2.882293090837461E-003
 soft         electrons   134.748253610451     
 augmentation electrons -2.882293090837461E-003
 soft         electrons   134.748253610451     
 augmentation electrons -2.882293090837461E-003
 soft         electrons   134.748253610451     
 augmentation electrons -2.882293090837461E-003
 soft         electrons   134.748253610451     
 augmentation electrons -2.882293090837461E-003
 soft         electrons   134.748253610451     
 augmentation electrons -2.882293090837461E-003
 soft         electrons   134.748253610451     
 augmentation electrons -2.882293090837461E-003
 augmentation electrons -2.882293090837461E-003
 soft         electrons   134.748253610451     
 augmentation electrons -2.882293090837461E-003
 soft         electrons   134.748253610451     
 augmentation electrons -2.882293090837461E-003
 soft         electrons   134.748253610451     
 augmentation electrons -2.882293090837461E-003
 soft         electrons   134.748253610451     
 augmentation electrons -2.882293090837461E-003
 soft         electrons   134.748253610451     
 augmentation electrons -2.882293090837461E-003
 soft         electrons   134.748253610451     
 augmentation electrons -2.882293090837461E-003
 soft         electrons   134.748253610451     
 augmentation electrons -2.882293090837461E-003
 soft         electrons   134.748253610451     
 augmentation electrons -2.882293090837461E-003
 soft         electrons   134.748253610451     
 augmentation electrons -2.882293090837461E-003
 soft         electrons   134.748253610451     
 augmentation electrons -2.882293090837461E-003
 soft         electrons   134.748253610451     
 augmentation electrons -2.882293090837461E-003
 soft         electrons   134.748253610451     
 augmentation electrons -2.882293090837461E-003
 soft         electrons   134.748253610451     
 soft         electrons   134.748253610451     
 total        electrons  0.636046235112983     
 total        electrons  0.636046235112983     
 total        electrons  0.636046235112983     
 total        electrons  0.636046235112983     
 total        electrons  0.636046235112983     
 total        electrons  0.636046235112983     
 total        electrons  0.636046235112983     
 total        electrons  0.636046235112983     
 total        electrons  0.636046235112983     
 total        electrons  0.636046235112983     
 total        electrons  0.636046235112983     
 total        electrons  0.636046235112983     
 total        electrons  0.636046235112983     
 total        electrons  0.636046235112983     
 total        electrons  0.636046235112983     
 total        electrons  0.636046235112983     
 total        electrons  0.636046235112983     
 total        electrons  0.636046235112983     
 total        electrons  0.636046235112983     
 total        electrons  0.636046235112983     
 total        electrons  0.636046235112983     
 total        electrons  0.636046235112983     
 total        electrons  0.636046235112983     
 total        electrons  0.636046235112983     
 total        electrons  0.636046235112983     
 total        electrons  0.636046235112983     
 total        electrons  0.636046235112983     
 total        electrons  0.636046235112983     
