 vasp.5.4.4.18Apr17-6-g9f103f2a35 (build Aug 15 2019 10:58:36) complex          
  
 executed on             LinuxIFC date 2019.10.12  15:01:36
 running on   28 total cores
 distrk:  each k-point on   28 cores,    1 groups
 distr:  one band on NCORES_PER_BAND=   1 cores,   28 groups


--------------------------------------------------------------------------------------------------------


 INCAR:
 POTCAR:   PAW_PBE C 08Apr2002                    
 POTCAR:    PAW_PBE Na_pv 19Sep2006               
 POTCAR:   PAW_PBE O 08Apr2002                    
 POTCAR:   PAW_PBE H 15Jun2001                    

 ----------------------------------------------------------------------------- 
|                                                                             |
|           W    W    AA    RRRRR   N    N  II  N    N   GGGG   !!!           |
|           W    W   A  A   R    R  NN   N  II  NN   N  G    G  !!!           |
|           W    W  A    A  R    R  N N  N  II  N N  N  G       !!!           |
|           W WW W  AAAAAA  RRRRR   N  N N  II  N  N N  G  GGG   !            |
|           WW  WW  A    A  R   R   N   NN  II  N   NN  G    G                |
|           W    W  A    A  R    R  N    N  II  N    N   GGGG   !!!           |
|                                                                             |
|      For optimal performance we recommend to set                            |
|        NCORE= 4 - approx SQRT( number of cores)                             |
|      NCORE specifies how many cores store one orbital (NPAR=cpu/NCORE).     |
|      This setting can  greatly improve the performance of VASP for DFT.     |
|      The default,   NCORE=1            might be grossly inefficient         |
|      on modern multi-core architectures or massively parallel machines.     |
|      Do your own testing !!!!                                               |
|      Unfortunately you need to use the default for GW and RPA calculations. |
|      (for HF NCORE is supported but not extensively tested yet)             |
|                                                                             |
 ----------------------------------------------------------------------------- 

 POTCAR:   PAW_PBE C 08Apr2002                    
   VRHFIN =C: s2p2                                                              
   LEXCH  = PE                                                                  
   EATOM  =   147.1560 eV,   10.8157 Ry                                         
                                                                                
   TITEL  = PAW_PBE C 08Apr2002                                                 
   LULTRA =        F    use ultrasoft PP ?                                      
   IUNSCR =        0    unscreen: 0-lin 1-nonlin 2-no                           
   RPACOR =     .000    partial core radius                                     
   POMASS =   12.011; ZVAL   =    4.000    mass and valenz                      
   RCORE  =    1.500    outmost cutoff radius                                   
   RWIGS  =    1.630; RWIGS  =     .863    wigner-seitz radius (au A)           
   ENMAX  =  400.000; ENMIN  =  300.000 eV                                      
   ICORE  =        2    local potential                                         
   LCOR   =        T    correct aug charges                                     
   LPAW   =        T    paw PP                                                  
   EAUG   =  644.873                                                            
   DEXC   =     .000                                                            
   RMAX   =    2.266    core radius for proj-oper                               
   RAUG   =    1.300    factor for augmentation sphere                          
   RDEP   =    1.501    radius for radial grids                                 
   RDEPT  =    1.300    core radius for aug-charge                              
   QCUT   =   -5.516; QGAM   =   11.032    optimization parameters              
                                                                                
   Description                                                                  
     l     E      TYP  RCUT    TYP  RCUT                                        
     0   .000     23  1.200                                                     
     0   .000     23  1.200                                                     
     1   .000     23  1.500                                                     
     1  2.500     23  1.500                                                     
     2   .000      7  1.500                                                     
  local pseudopotential read in
  atomic valenz-charges read in
  non local Contribution for L=           0  read in
    real space projection operators read in
  non local Contribution for L=           0  read in
    real space projection operators read in
  non local Contribution for L=           1  read in
    real space projection operators read in
  non local Contribution for L=           1  read in
    real space projection operators read in
    PAW grid and wavefunctions read in
 
   number of l-projection  operators is LMAX  =           4
   number of lm-projection operators is LMMAX =           8
 
 POTCAR:    PAW_PBE Na_pv 19Sep2006               
   VRHFIN =Na: p6s1                                                             
   LEXCH  = PE                                                                  
   EATOM  =   766.0439 eV,   56.3026 Ry                                         
                                                                                
   TITEL  = PAW_PBE Na_pv 19Sep2006                                             
   LULTRA =        F    use ultrasoft PP ?                                      
   IUNSCR =        1    unscreen: 0-lin 1-nonlin 2-no                           
   RPACOR =    1.800    partial core radius                                     
   POMASS =   22.990; ZVAL   =    7.000    mass and valenz                      
   RCORE  =    2.200    outmost cutoff radius                                   
   RWIGS  =    2.200; RWIGS  =    1.164    wigner-seitz radius (au A)           
   ENMAX  =  259.561; ENMIN  =  194.671 eV                                      
   ICORE  =        2    local potential                                         
   LCOR   =        T    correct aug charges                                     
   LPAW   =        T    paw PP                                                  
   EAUG   =  368.056                                                            
   DEXC   =     .000                                                            
   RMAX   =    2.862    core radius for proj-oper                               
   RAUG   =    1.300    factor for augmentation sphere                          
   RDEP   =    2.259    radius for radial grids                                 
   QCUT   =   -4.368; QGAM   =    8.735    optimization parameters              
                                                                                
   Description                                                                  
     l     E      TYP  RCUT    TYP  RCUT                                        
     1   .000     23  2.000                                                     
     1   .500     23  2.000                                                     
     0   .000     23  2.200                                                     
     0  2.500     23  2.200                                                     
     2  -.100     23  2.200                                                     
  local pseudopotential read in
  partial core-charges read in
  atomic valenz-charges read in
  non local Contribution for L=           1  read in
    real space projection operators read in
  non local Contribution for L=           1  read in
    real space projection operators read in
  non local Contribution for L=           0  read in
    real space projection operators read in
  non local Contribution for L=           0  read in
    real space projection operators read in
    PAW grid and wavefunctions read in
 
   number of l-projection  operators is LMAX  =           4
   number of lm-projection operators is LMMAX =           8
 
 POTCAR:   PAW_PBE O 08Apr2002                    
   VRHFIN =O: s2p4                                                              
   LEXCH  = PE                                                                  
   EATOM  =   432.3788 eV,   31.7789 Ry                                         
                                                                                
   TITEL  = PAW_PBE O 08Apr2002                                                 
   LULTRA =        F    use ultrasoft PP ?                                      
   IUNSCR =        0    unscreen: 0-lin 1-nonlin 2-no                           
   RPACOR =     .000    partial core radius                                     
   POMASS =   16.000; ZVAL   =    6.000    mass and valenz                      
   RCORE  =    1.520    outmost cutoff radius                                   
   RWIGS  =    1.550; RWIGS  =     .820    wigner-seitz radius (au A)           
   ENMAX  =  400.000; ENMIN  =  300.000 eV                                      
   ICORE  =        2    local potential                                         
   LCOR   =        T    correct aug charges                                     
   LPAW   =        T    paw PP                                                  
   EAUG   =  605.392                                                            
   DEXC   =     .000                                                            
   RMAX   =    2.264    core radius for proj-oper                               
   RAUG   =    1.300    factor for augmentation sphere                          
   RDEP   =    1.550    radius for radial grids                                 
   QCUT   =   -5.520; QGAM   =   11.041    optimization parameters              
                                                                                
   Description                                                                  
     l     E      TYP  RCUT    TYP  RCUT                                        
     0   .000     23  1.200                                                     
     0  -.700     23  1.200                                                     
     1   .000     23  1.520                                                     
     1   .600     23  1.520                                                     
     2   .000      7  1.500                                                     
  local pseudopotential read in
  atomic valenz-charges read in
  non local Contribution for L=           0  read in
    real space projection operators read in
  non local Contribution for L=           0  read in
    real space projection operators read in
  non local Contribution for L=           1  read in
    real space projection operators read in
  non local Contribution for L=           1  read in
    real space projection operators read in
    PAW grid and wavefunctions read in
 
   number of l-projection  operators is LMAX  =           4
   number of lm-projection operators is LMMAX =           8
 
 POTCAR:   PAW_PBE H 15Jun2001                    
   VRHFIN =H: ultrasoft test                                                    
   LEXCH  = PE                                                                  
   EATOM  =    12.4884 eV,     .9179 Ry                                         
                                                                                
   TITEL  = PAW_PBE H 15Jun2001                                                 
   LULTRA =        F    use ultrasoft PP ?                                      
   IUNSCR =        0    unscreen: 0-lin 1-nonlin 2-no                           
   RPACOR =     .000    partial core radius                                     
   POMASS =    1.000; ZVAL   =    1.000    mass and valenz                      
   RCORE  =    1.100    outmost cutoff radius                                   
   RWIGS  =     .700; RWIGS  =     .370    wigner-seitz radius (au A)           
   ENMAX  =  250.000; ENMIN  =  200.000 eV                                      
   RCLOC  =     .701    cutoff for local pot                                    
   LCOR   =        T    correct aug charges                                     
   LPAW   =        T    paw PP                                                  
   EAUG   =  400.000                                                            
   RMAX   =    2.174    core radius for proj-oper                               
   RAUG   =    1.200    factor for augmentation sphere                          
   RDEP   =    1.112    radius for radial grids                                 
   QCUT   =   -5.749; QGAM   =   11.498    optimization parameters              
                                                                                
   Description                                                                  
     l     E      TYP  RCUT    TYP  RCUT                                        
     0   .000     23  1.100                                                     
     0   .500     23  1.100                                                     
     1  -.300     23  1.100                                                     
  local pseudopotential read in
  atomic valenz-charges read in
  non local Contribution for L=           0  read in
    real space projection operators read in
  non local Contribution for L=           0  read in
    real space projection operators read in
  non local Contribution for L=           1  read in
    real space projection operators read in
    PAW grid and wavefunctions read in
 
   number of l-projection  operators is LMAX  =           3
   number of lm-projection operators is LMMAX =           5
 
 Optimization of the real space projectors (new method)

 maximal supplied QI-value         = 25.13
 optimisation between [QCUT,QGAM] = [ 11.31, 22.87] = [ 35.82,146.48] Ry 
 Optimized for a Real-space Cutoff    1.00 Angstroem

   l    n(q)    QCUT    max X(q) W(low)/X(q) W(high)/X(q)  e(spline) 
   0      7    11.310     5.582    0.73E-04    0.21E-03    0.14E-07
   0      7    11.310    69.432    0.43E-03    0.13E-02    0.18E-06
   1      6    11.310     2.780    0.17E-04    0.12E-03    0.37E-07
   1      6    11.310     4.549    0.34E-03    0.55E-03    0.92E-07
 Optimization of the real space projectors (new method)

 maximal supplied QI-value         = 17.01
 optimisation between [QCUT,QGAM] = [ 11.40, 22.79] = [ 36.36,145.44] Ry 
 Optimized for a Real-space Cutoff    1.43 Angstroem

   l    n(q)    QCUT    max X(q) W(low)/X(q) W(high)/X(q)  e(spline) 
   1      9    11.395     4.977    0.21E-05    0.57E-05    0.25E-07
   1      9    11.395     7.312    0.32E-03    0.23E-03    0.25E-06
   0     10    11.395    36.258    0.19E-04    0.13E-05    0.99E-08
   0     10    11.395    45.649    0.25E-04    0.30E-05    0.55E-07
 Optimization of the real space projectors (new method)

 maximal supplied QI-value         = 24.76
 optimisation between [QCUT,QGAM] = [ 11.39, 22.77] = [ 36.31,145.25] Ry 
 Optimized for a Real-space Cutoff    1.00 Angstroem

   l    n(q)    QCUT    max X(q) W(low)/X(q) W(high)/X(q)  e(spline) 
   0      7    11.387     4.192    0.89E-04    0.26E-03    0.19E-07
   0      7    11.387     8.473    0.42E-03    0.14E-02    0.17E-06
   1      6    11.387     2.474    0.11E-03    0.26E-03    0.18E-07
   1      6    11.387     3.912    0.39E-03    0.87E-03    0.15E-06
 Optimization of the real space projectors (new method)

 maximal supplied QI-value         = 34.20
 optimisation between [QCUT,QGAM] = [ 11.29, 22.57] = [ 35.68,142.71] Ry 
 Optimized for a Real-space Cutoff    1.16 Angstroem

   l    n(q)    QCUT    max X(q) W(low)/X(q) W(high)/X(q)  e(spline) 
   0      8    11.287     4.436    0.39E-04    0.71E-04    0.34E-07
   0      8    11.287    16.131    0.38E-03    0.70E-03    0.15E-06
   1      7    11.287     4.654    0.22E-03    0.25E-04    0.22E-06
 PAW_PBE C 08Apr2002                    :
 energy of atom  1       EATOM= -147.1560
 kinetic energy error for atom=    0.0076 (will be added to EATOM!!)
  PAW_PBE Na_pv 19Sep2006               :
 energy of atom  2       EATOM= -766.0439
 kinetic energy error for atom=    0.0021 (will be added to EATOM!!)
 PAW_PBE O 08Apr2002                    :
 energy of atom  3       EATOM= -432.3788
 kinetic energy error for atom=    0.0224 (will be added to EATOM!!)
 PAW_PBE H 15Jun2001                    :
 energy of atom  4       EATOM=  -12.4884
 kinetic energy error for atom=    0.0020 (will be added to EATOM!!)
 
 
 POSCAR: graphene+Na                             
  positions in direct lattice
  velocities in cartesian coordinates
 exchange correlation table for  LEXCH =        8
   RHO(1)=    0.500       N(1)  =     2000
   RHO(2)=  100.500       N(2)  =     4000
 


--------------------------------------------------------------------------------------------------------


 ion  position               nearest neighbor table
   1  0.166  0.083  0.500-  29 1.42  18 1.42  17 1.43
   2  0.417  0.083  0.500-  30 1.42  18 1.42  19 1.43
   3  0.667  0.083  0.500-  19 1.42  31 1.42  20 1.42
   4  0.917  0.083  0.500-  17 1.42  32 1.42  20 1.42
   5  0.166  0.333  0.500-  17 1.42  21 1.42  22 1.43
   6  0.416  0.333  0.499-  18 1.43  22 1.43  23 1.43
   7  0.667  0.333  0.500-  24 1.42  19 1.42  23 1.43
   8  0.917  0.333  0.500-  24 1.42  21 1.42  20 1.42
   9  0.166  0.583  0.500-  25 1.42  26 1.42  21 1.43
  10  0.416  0.584  0.499-  26 1.43  27 1.43  22 1.43
  11  0.667  0.584  0.499-  28 1.43  27 1.43  23 1.43
  12  0.917  0.583  0.500-  25 1.42  28 1.42  24 1.43
  13  0.167  0.833  0.500-  25 1.42  29 1.42  30 1.42
  14  0.417  0.834  0.500-  30 1.42  26 1.42  31 1.43
  15  0.667  0.834  0.500-  32 1.42  31 1.42  27 1.43
  16  0.917  0.834  0.500-  29 1.42  28 1.42  32 1.43
  17  0.083  0.166  0.500-   4 1.42   5 1.42   1 1.43
  18  0.333  0.166  0.500-   2 1.42   1 1.42   6 1.43
  19  0.583  0.166  0.500-   3 1.42   7 1.42   2 1.43
  20  0.833  0.167  0.500-   3 1.42   4 1.42   8 1.42
  21  0.083  0.417  0.500-   8 1.42   5 1.42   9 1.43
  22  0.333  0.416  0.499-   5 1.43   6 1.43  10 1.43
  23  0.584  0.416  0.499-   7 1.43  11 1.43   6 1.43
  24  0.834  0.417  0.500-   8 1.42   7 1.42  12 1.43
  25  0.083  0.667  0.500-   9 1.42  12 1.42  13 1.42
  26  0.333  0.667  0.500-  14 1.42   9 1.42  10 1.43
  27  0.584  0.667  0.499-  15 1.43  11 1.43  10 1.43
  28  0.834  0.667  0.500-  12 1.42  16 1.42  11 1.43
  29  0.083  0.917  0.500-   1 1.42  16 1.42  13 1.42
  30  0.333  0.917  0.500-  14 1.42   2 1.42  13 1.42
  31  0.583  0.917  0.500-   3 1.42  15 1.42  14 1.43
  32  0.834  0.917  0.500-   4 1.42  15 1.42  16 1.43
  33  0.500  0.500  0.761-  34 2.24
  34  0.500  0.500  0.649-  36 0.98  35 0.98  33 2.24
  35  0.423  0.500  0.618-  34 0.98
  36  0.577  0.500  0.619-  34 0.98
 
  LATTYP: Found a hexagonal cell.
 ALAT       =     9.8742351532
 C/A-ratio  =     2.0254733344
  
  Lattice vectors:
  
 A1 = (   9.8742351532,   0.0000000000,   0.0000000000)
 A2 = (  -4.9371175766,   8.5513384856,   0.0000000000)
 A3 = (   0.0000000000,   0.0000000000,  20.0000000000)


Analysis of symmetry for initial positions (statically):
=====================================================================
 Subroutine PRICEL returns:
 Original cell was already a primitive cell.
 

 Routine SETGRP: Setting up the symmetry group for a 
 hexagonal supercell.


 Subroutine GETGRP returns: Found  1 space group operations
 (whereof  1 operations were pure point group operations)
 out of a pool of 24 trial point group operations.


The static configuration has the point symmetry C_1 .


Analysis of symmetry for dynamics (positions and initial velocities):
=====================================================================
 Subroutine PRICEL returns:
 Original cell was already a primitive cell.
 

 Routine SETGRP: Setting up the symmetry group for a 
 hexagonal supercell.


 Subroutine GETGRP returns: Found  1 space group operations
 (whereof  1 operations were pure point group operations)
 out of a pool of 24 trial point group operations.


The dynamic configuration has the point symmetry C_1 .


Analysis of constrained symmetry for selective dynamics:
=====================================================================
 Subroutine PRICEL returns:
 Original cell was already a primitive cell.
 

 Routine SETGRP: Setting up the symmetry group for a 
 hexagonal supercell.


 Subroutine GETGRP returns: Found  1 space group operations
 (whereof  1 operations were pure point group operations)
 out of a pool of 24 trial point group operations.


The constrained configuration has the point symmetry C_1 .


Analysis of structural, dynamic, and magnetic symmetry:
=====================================================================
 Subroutine PRICEL returns:
 Original cell was already a primitive cell.
 

 Routine SETGRP: Setting up the symmetry group for a 
 hexagonal supercell.


 Subroutine GETGRP returns: Found  1 space group operations
 (whereof  1 operations were pure point group operations)
 out of a pool of 24 trial point group operations.


The magnetic configuration has the point symmetry C_1 .


 Subroutine INISYM returns: Found  1 space group operations
 (whereof  1 operations are pure point group operations),
 and found     1 'primitive' translations

 
 
 KPOINTS: k-mesh for unfolding the band structure 
  k-points in reciprocal lattice
Space group operators:
 irot       det(A)        alpha          n_x          n_y          n_z        tau_x        tau_y        tau_z
    1     1.000000     0.000000     1.000000     0.000000     0.000000     0.000000     0.000000     0.000000

 ----------------------------------------------------------------------------- 
|                                                                             |
|           W    W    AA    RRRRR   N    N  II  N    N   GGGG   !!!           |
|           W    W   A  A   R    R  NN   N  II  NN   N  G    G  !!!           |
|           W    W  A    A  R    R  N N  N  II  N N  N  G       !!!           |
|           W WW W  AAAAAA  RRRRR   N  N N  II  N  N N  G  GGG   !            |
|           WW  WW  A    A  R   R   N   NN  II  N   NN  G    G                |
|           W    W  A    A  R    R  N    N  II  N    N   GGGG   !!!           |
|                                                                             |
|      The number of bands has been changed from the values supplied          |
|      in the INCAR file. This is a result of running the parallel version.   |
|      The orbitals not found in the WAVECAR file will be initialized with    |
|      random numbers, which is usually adequate. For correlated              |
|      calculations, however, you should redo the groundstate calculation.    |
|      I found NBANDS    =      180  now  NBANDS  =     196                   |
|                                                                             |
 ----------------------------------------------------------------------------- 



--------------------------------------------------------------------------------------------------------




 Dimension of arrays:
   k-points           NKPTS =     50   k-points in BZ     NKDIM =     50   number of bands    NBANDS=    196
   number of dos      NEDOS =    301   number of ions     NIONS =     36
   non local maximal  LDIM  =      4   non local SUM 2l+1 LMDIM =      8
   total plane-waves  NPLWV = 326592
   max r-space proj   IRMAX =   2426   max aug-charges    IRDMAX=   5891
   dimension x,y,z NGX =    54 NGY =   54 NGZ =  112
   dimension x,y,z NGXF=   112 NGYF=  112 NGZF=  224
   support grid    NGXF=   112 NGYF=  112 NGZF=  224
   ions per type =              32   1   1   2
   NGX,Y,Z   is equivalent  to a cutoff of   9.09,  9.09,  9.31 a.u.
   NGXF,Y,Z  is equivalent  to a cutoff of  18.86, 18.86, 18.62 a.u.

 SYSTEM =  Graphene                                
 POSCAR =  graphene+Na                             

 Startparameter for this run:
   NWRITE =      2    write-flag & timer
   PREC   = normal    normal or accurate (medium, high low for compatibility)
   ISTART =      1    job   : 0-new  1-cont  2-samecut
   ICHARG =     11    charge: 1-file 2-atom 10-const
   ISPIN  =      2    spin polarized calculation?
   LNONCOLLINEAR =      F non collinear calculations
   LSORBIT =      F    spin-orbit coupling
   INIWAV =      1    electr: 0-lowe 1-rand  2-diag
   LASPH  =      F    aspherical Exc in radial PAW
   METAGGA=      F    non-selfconsistent MetaGGA calc.

 Electronic Relaxation 1
   ENCUT  =  500.0 eV  36.75 Ry    6.06 a.u.  18.00 18.00 36.46*2*pi/ulx,y,z
   ENINI  =  500.0     initial cutoff
   ENAUG  =  644.9 eV  augmentation charge cutoff
   NELM   =    200;   NELMIN=  2; NELMDL=  0     # of ELM steps 
   EDIFF  = 0.1E-06   stopping-criterion for ELM
   LREAL  =      T    real-space projection
   NLSPLINE    = F    spline interpolate recip. space projectors
   LCOMPAT=      F    compatible to vasp.4.4
   GGA_COMPAT  = T    GGA compatible to vasp.4.4-vasp.4.6
   LMAXPAW     = -100 max onsite density
   LMAXMIX     =    2 max onsite mixed and CHGCAR
   VOSKOWN=      0    Vosko Wilk Nusair interpolation
   ROPT   =   -0.00050  -0.00050  -0.00050  -0.00050
 Ionic relaxation
   EDIFFG = 0.1E-05   stopping-criterion for IOM
   NSW    =      0    number of steps for IOM
   NBLOCK =      1;   KBLOCK =      1    inner block; outer block 
   IBRION =     -1    ionic relax: 0-MD 1-quasi-New 2-CG
   NFREE  =      0    steps in history (QN), initial steepest desc. (CG)
   ISIF   =      2    stress and relaxation
   IWAVPR =     10    prediction:  0-non 1-charg 2-wave 3-comb
   ISYM   =      2    0-nonsym 1-usesym 2-fastsym
   LCORR  =      T    Harris-Foulkes like correction to forces

   POTIM  = 0.5000    time-step for ionic-motion
   TEIN   =    0.0    initial temperature
   TEBEG  =    0.0;   TEEND  =   0.0 temperature during run
   SMASS  =  -3.00    Nose mass-parameter (am)
   estimated Nose-frequenzy (Omega)   =  0.10E-29 period in steps =****** mass=  -0.223E-26a.u.
   SCALEE = 1.0000    scale energy and forces
   NPACO  =    256;   APACO  = 16.0  distance and # of slots for P.C.
   PSTRESS=    0.0 pullay stress

  Mass of Ions in am
   POMASS =  12.01 22.99 16.00  1.00
  Ionic Valenz
   ZVAL   =   4.00  7.00  6.00  1.00
  Atomic Wigner-Seitz radii
   RWIGS  =  -1.00 -1.00 -1.00 -1.00
  virtual crystal weights 
   VCA    =   1.00  1.00  1.00  1.00
   NELECT =     143.0000    total number of electrons
   NUPDOWN=      -1.0000    fix difference up-down

 DOS related values:
   EMIN   =  10.00;   EMAX   =-10.00  energy-range for DOS
   EFERMI =   0.00
   ISMEAR =     0;   SIGMA  =   0.03  broadening in eV -4-tet -1-fermi 0-gaus

 Electronic relaxation 2 (details)
   IALGO  =     68    algorithm
   LDIAG  =      T    sub-space diagonalisation (order eigenvalues)
   LSUBROT=      F    optimize rotation matrix (better conditioning)
   TURBO    =      0    0=normal 1=particle mesh
   IRESTART =      0    0=no restart 2=restart with 2 vectors
   NREBOOT  =      0    no. of reboots
   NMIN     =      0    reboot dimension
   EREF     =   0.00    reference energy to select bands
   IMIX   =      4    mixing-type and parameters
     AMIX     =   0.40;   BMIX     =  1.00
     AMIX_MAG =   1.60;   BMIX_MAG =  1.00
     AMIN     =   0.10
     WC   =   100.;   INIMIX=   1;  MIXPRE=   1;  MAXMIX= -45

 Intra band minimization:
   WEIMIN = 0.0000     energy-eigenvalue tresh-hold
   EBREAK =  0.13E-09  absolut break condition
   DEPER  =   0.30     relativ break condition  

   TIME   =   0.40     timestep for ELM

  volume/ion in A,a.u.               =      46.91       316.56
  Fermi-wavevector in a.u.,A,eV,Ry     =   0.718893  1.358511  7.031590  0.516807
  Thomas-Fermi vector in A             =   1.807949
 
 Write flags
   LWAVE        =      T    write WAVECAR
   LDOWNSAMPLE  =      F    k-point downsampling of WAVECAR
   LCHARG       =      F    write CHGCAR
   LVTOT        =      F    write LOCPOT, total local potential
   LVHAR        =      F    write LOCPOT, Hartree potential only
   LELF         =      F    write electronic localiz. function (ELF)
   LORBIT       =      0    0 simple, 1 ext, 2 COOP (PROOUT), +10 PAW based schemes


 Dipole corrections
   LMONO  =      F    monopole corrections only (constant potential shift)
   LDIPOL =      T    correct potential (dipole corrections)
   IDIPOL =      3    1-x, 2-y, 3-z, 4-all directions 
   EPSILON=  1.0000000 bulk dielectric constant

 Exchange correlation treatment:
   GGA     =    --    GGA type
   LEXCH   =     8    internal setting for exchange type
   VOSKOWN=      0    Vosko Wilk Nusair interpolation
   LHFCALC =     F    Hartree Fock is set to
   LHFONE  =     F    Hartree Fock one center treatment
   AEXX    =    0.0000 exact exchange contribution

 Linear response parameters
   LEPSILON=     F    determine dielectric tensor
   LRPA    =     F    only Hartree local field effects (RPA)
   LNABLA  =     F    use nabla operator in PAW spheres
   LVEL    =     F    velocity operator in full k-point grid
   LINTERFAST=   F  fast interpolation
   KINTER  =     0    interpolate to denser k-point grid
   CSHIFT  =0.1000    complex shift for real part using Kramers Kronig
   OMEGAMAX=  -1.0    maximum frequency
   DEG_THRESHOLD= 0.2000000E-02 threshold for treating states as degnerate
   RTIME   =   -0.100 relaxation time in fs
  (WPLASMAI=    0.000 imaginary part of plasma frequency in eV, 0.658/RTIME)
   DFIELD  = 0.0000000 0.0000000 0.0000000 field for delta impulse in time
 
 Orbital magnetization related:
   ORBITALMAG=     F  switch on orbital magnetization
   LCHIMAG   =     F  perturbation theory with respect to B field
   DQ        =  0.001000  dq finite difference perturbation B field
   LLRAUG    =     F  two centre corrections for induced B field



--------------------------------------------------------------------------------------------------------


 Static calculation
 charge density and potential remain constant during run
 spin polarized calculation
 RMM-DIIS sequential band-by-band and
  variant of blocked Davidson during initial phase
 perform sub-space diagonalisation
    before iterative eigenvector-optimisation
 no mixing
 using additional bands          124
 real space projection scheme for non local part
 use partial core corrections
 calculate Harris-corrections to forces 
   (improved forces if not selfconsistent)
 use gradient corrections 
 WARNING: stress and forces are not correct
  (second derivative of E(xc) not defined)
 use of overlap-Matrix (Vanderbilt PP)
 Gauss-broadening in eV      SIGMA  =   0.03


--------------------------------------------------------------------------------------------------------


  energy-cutoff  :      500.00
  volume of cell :     1688.76
      direct lattice vectors                 reciprocal lattice vectors
     9.874235153  0.000000000  0.000000000     0.101273667  0.058470379  0.000000000
    -4.937117577  8.551338486  0.000000000     0.000000000  0.116940757  0.000000000
     0.000000000  0.000000000 20.000000000     0.000000000  0.000000000  0.050000000

  length of vectors
     9.874235153  9.874235153 20.000000000     0.116940757  0.116940757  0.050000000


 
 old parameters found on file WAVECAR:
  energy-cutoff  :      500.00
  volume of cell :     1688.76
      direct lattice vectors                 reciprocal lattice vectors
     9.874235153  0.000000000  0.000000000     0.101273667  0.058470379  0.000000000
    -4.937117577  8.551338486  0.000000000     0.000000000  0.116940757  0.000000000
     0.000000000  0.000000000 20.000000000     0.000000000  0.000000000  0.050000000

  length of vectors

 
 k-points in units of 2pi/SCALE and weight: k-mesh for unfolding the band structure 
   0.00000000  0.00000000  0.00000000       0.020
   0.00843947  0.00487253  0.00000000       0.020
   0.01687894  0.00974506  0.00000000       0.020
   0.02531842  0.01461759  0.00000000       0.020
   0.03375789  0.01949013  0.00000000       0.020
   0.04219736  0.02436266  0.00000000       0.020
   0.05063683  0.02923519  0.00000000       0.020
  -0.04219736 -0.02436266  0.00000000       0.020
  -0.03375789 -0.01949013  0.00000000       0.020
  -0.02531842 -0.01461759  0.00000000       0.020
  -0.01687894 -0.00974506  0.00000000       0.020
  -0.00843947 -0.00487253  0.00000000       0.020
  -0.00281316  0.00487253  0.00000000       0.020
  -0.00562631  0.00974506  0.00000000       0.020
  -0.00843947  0.01461759  0.00000000       0.020
  -0.01125263  0.01949013  0.00000000       0.020
  -0.01406579  0.02436266  0.00000000       0.020
  -0.01687894  0.02923519  0.00000000       0.020
  -0.01969210  0.03410772  0.00000000       0.020
  -0.02250526  0.03898025  0.00000000       0.020
  -0.02531842  0.04385278  0.00000000       0.020
  -0.02813157 -0.06821544  0.00000000       0.020
  -0.03094473 -0.06334291  0.00000000       0.020
  -0.03375789 -0.05847038  0.00000000       0.020
  -0.03657105 -0.05359785  0.00000000       0.020
  -0.03938420 -0.04872532  0.00000000       0.020
  -0.04219736 -0.04385278  0.00000000       0.020
  -0.04501052 -0.03898025  0.00000000       0.020
  -0.04782368 -0.03410772  0.00000000       0.020
   0.04782368  0.03410772  0.00000000       0.020
   0.04501052  0.03898025  0.00000000       0.020
   0.04219736  0.04385278  0.00000000       0.020
   0.03938420  0.04872532  0.00000000       0.020
   0.03657105  0.05359785  0.00000000       0.020
   0.03375789  0.05847038  0.00000000       0.020
   0.02813157  0.04872532  0.00000000       0.020
   0.02250526  0.03898025  0.00000000       0.020
   0.01687894  0.02923519  0.00000000       0.020
   0.01125263  0.01949013  0.00000000       0.020
   0.00562631  0.00974506  0.00000000       0.020
  -0.00562631 -0.00974506  0.00000000       0.020
  -0.01125263 -0.01949013  0.00000000       0.020
  -0.01687894 -0.02923519  0.00000000       0.020
  -0.02250526 -0.03898025  0.00000000       0.020
  -0.02813157 -0.04872532  0.00000000       0.020
  -0.03938420 -0.06821544  0.00000000       0.020
  -0.04501052 -0.07796050  0.00000000       0.020
   0.05063683  0.08770557  0.00000000       0.020
   0.04501052  0.07796050  0.00000000       0.020
   0.03938420  0.06821544  0.00000000       0.020
 
 k-points in reciprocal lattice and weights: k-mesh for unfolding the band structure 
   0.00000000  0.00000000  0.00000000       0.020
   0.08333333  0.00000000  0.00000000       0.020
   0.16666667  0.00000000  0.00000000       0.020
   0.25000000  0.00000000  0.00000000       0.020
   0.33333333  0.00000000  0.00000000       0.020
   0.41666667  0.00000000  0.00000000       0.020
   0.50000000  0.00000000  0.00000000       0.020
  -0.41666667  0.00000000  0.00000000       0.020
  -0.33333333  0.00000000  0.00000000       0.020
  -0.25000000  0.00000000  0.00000000       0.020
  -0.16666667  0.00000000  0.00000000       0.020
  -0.08333333  0.00000000  0.00000000       0.020
  -0.02777778  0.05555556  0.00000000       0.020
  -0.05555556  0.11111111  0.00000000       0.020
  -0.08333333  0.16666667  0.00000000       0.020
  -0.11111111  0.22222222  0.00000000       0.020
  -0.13888889  0.27777778  0.00000000       0.020
  -0.16666667  0.33333333  0.00000000       0.020
  -0.19444444  0.38888889  0.00000000       0.020
  -0.22222222  0.44444444  0.00000000       0.020
  -0.25000000  0.50000000  0.00000000       0.020
  -0.27777778 -0.44444444  0.00000000       0.020
  -0.30555556 -0.38888889  0.00000000       0.020
  -0.33333333 -0.33333333  0.00000000       0.020
  -0.36111111 -0.27777778  0.00000000       0.020
  -0.38888889 -0.22222222  0.00000000       0.020
  -0.41666667 -0.16666667  0.00000000       0.020
  -0.44444444 -0.11111111  0.00000000       0.020
  -0.47222222 -0.05555556  0.00000000       0.020
   0.47222222  0.05555556  0.00000000       0.020
   0.44444444  0.11111111  0.00000000       0.020
   0.41666667  0.16666667  0.00000000       0.020
   0.38888889  0.22222222  0.00000000       0.020
   0.36111111  0.27777778  0.00000000       0.020
   0.33333333  0.33333333  0.00000000       0.020
   0.27777778  0.27777778  0.00000000       0.020
   0.22222222  0.22222222  0.00000000       0.020
   0.16666667  0.16666667  0.00000000       0.020
   0.11111111  0.11111111  0.00000000       0.020
   0.05555556  0.05555556  0.00000000       0.020
  -0.05555556 -0.05555556  0.00000000       0.020
  -0.11111111 -0.11111111  0.00000000       0.020
  -0.16666667 -0.16666667  0.00000000       0.020
  -0.22222222 -0.22222222  0.00000000       0.020
  -0.27777778 -0.27777778  0.00000000       0.020
  -0.38888889 -0.38888889  0.00000000       0.020
  -0.44444444 -0.44444444  0.00000000       0.020
   0.50000000  0.50000000  0.00000000       0.020
   0.44444444  0.44444444  0.00000000       0.020
   0.38888889  0.38888889  0.00000000       0.020
 
 position of ions in fractional coordinates (direct lattice) 
   0.16647519  0.08315086  0.50000000
   0.41667536  0.08315076  0.49997434
   0.66671652  0.08335871  0.50000000
   0.91664183  0.08335826  0.50008619
   0.16610479  0.33305198  0.49978933
   0.41637835  0.33275756  0.49915570
   0.66694814  0.33305189  0.50000000
   0.91664147  0.33328375  0.50010920
   0.16647518  0.58332485  0.49999610
   0.41637829  0.58362174  0.49918327
   0.66724247  0.58362162  0.49915814
   0.91684914  0.58332455  0.49997860
   0.16666649  0.83333331  0.50000060
   0.41667497  0.83352476  0.49998966
   0.66694814  0.83389550  0.49978572
   0.91684908  0.83352476  0.50000000
   0.08315010  0.16647489  0.50000000
   0.33305308  0.16610453  0.49977526
   0.58332425  0.16647545  0.50003827
   0.83333319  0.16666663  0.50003105
   0.08315065  0.41667551  0.50002050
   0.33275682  0.41637752  0.49916998
   0.58362013  0.41638002  0.49921545
   0.83352453  0.41667581  0.50006390
   0.08335880  0.66671699  0.50000000
   0.33305141  0.66694856  0.49979252
   0.58362234  0.66724289  0.49917346
   0.83389568  0.66694695  0.49977368
   0.08335836  0.91664159  0.50007981
   0.33328301  0.91664112  0.50000000
   0.58332473  0.91684961  0.49999064
   0.83352512  0.91684991  0.50000000
   0.50000000  0.49999997  0.76116168
   0.50000000  0.49999997  0.64906648
   0.42264305  0.50003352  0.61845104
   0.57719642  0.49992175  0.61850374
 
 position of ions in cartesian coordinates  (Angst):
   1.23328960  0.71105118 10.00000000
   3.70382540  0.71105029  9.99948680
   6.17176393  0.71282850 10.00000000
   8.63958747  0.71282468 10.00172376
  -0.00415899  2.84804021  9.99578654
   2.46855452  2.84552255  9.98311400
   4.94128643  2.84803944 10.00000000
   7.40567240  2.85002218 10.00218392
  -1.23612832  4.98820824  9.99992192
   1.23000799  4.99074705  9.98366534
   3.70710046  4.99074603  9.98316288
   6.17324207  4.98820569  9.99957204
  -2.46856040  7.12611523 10.00001192
  -0.00086311  7.12775239  9.99979318
   2.46856262  7.13092272  9.99571442
   4.93797362  7.12775239 10.00000000
  -0.00086245  1.42358317 10.00000000
   2.46856688  1.42041602  9.99550522
   4.93797201  1.42358788 10.00076532
   7.40567518  1.42522274 10.00062108
  -1.23612692  3.56313331 10.00041008
   1.23001431  3.56058507  9.98339952
   3.70708531  3.56060647  9.98430908
   6.17323972  3.56313586 10.00127792
  -2.46855577  5.70132268 10.00000000
  -0.00417547  5.70330286  9.99585032
   2.46856761  5.70581976  9.98346924
   4.94128657  5.70328910  9.99547362
  -3.70246725  7.83851253 10.00159622
  -1.23465018  7.83850845 10.00000000
   1.23329122  7.84029138  9.99981284
   3.70382724  7.84029393 10.00000000
   2.46855894  4.27566899 15.22323366
   2.46855894  4.27566899 12.98132954
   1.70455258  4.27595589 12.36902079
   3.23120075  4.27500012 12.37007483
 


--------------------------------------------------------------------------------------------------------


 k-point  1 :   0.0000 0.0000 0.0000  plane waves:   42745
 k-point  2 :   0.0833 0.0000 0.0000  plane waves:   42779
 k-point  3 :   0.1667 0.0000 0.0000  plane waves:   42813
 k-point  4 :   0.2500 0.0000 0.0000  plane waves:   42881
 k-point  5 :   0.3333 0.0000 0.0000  plane waves:   42905
 k-point  6 :   0.4167 0.0000 0.0000  plane waves:   42888
 k-point  7 :   0.5000 0.0000 0.0000  plane waves:   42830
 k-point  8 :  -0.4167 0.0000 0.0000  plane waves:   42888
 k-point  9 :  -0.3333 0.0000 0.0000  plane waves:   42905
 k-point 10 :  -0.2500 0.0000 0.0000  plane waves:   42881
 k-point 11 :  -0.1667 0.0000 0.0000  plane waves:   42813
 k-point 12 :  -0.0833 0.0000 0.0000  plane waves:   42779
 k-point 13 :  -0.0278 0.0556 0.0000  plane waves:   42782
 k-point 14 :  -0.0556 0.1111 0.0000  plane waves:   42794
 k-point 15 :  -0.0833 0.1667 0.0000  plane waves:   42826
 k-point 16 :  -0.1111 0.2222 0.0000  plane waves:   42888
 k-point 17 :  -0.1389 0.2778 0.0000  plane waves:   42896
 k-point 18 :  -0.1667 0.3333 0.0000  plane waves:   42876
 k-point 19 :  -0.1944 0.3889 0.0000  plane waves:   42910
 k-point 20 :  -0.2222 0.4444 0.0000  plane waves:   42886
 k-point 21 :  -0.2500 0.5000 0.0000  plane waves:   42898
 k-point 22 :  -0.2778-0.4444 0.0000  plane waves:   42906
 k-point 23 :  -0.3056-0.3889 0.0000  plane waves:   42872
 k-point 24 :  -0.3333-0.3333 0.0000  plane waves:   42816
 k-point 25 :  -0.3611-0.2778 0.0000  plane waves:   42882
 k-point 26 :  -0.3889-0.2222 0.0000  plane waves:   42904
 k-point 27 :  -0.4167-0.1667 0.0000  plane waves:   42864
 k-point 28 :  -0.4444-0.1111 0.0000  plane waves:   42906
 k-point 29 :  -0.4722-0.0556 0.0000  plane waves:   42880
 k-point 30 :   0.4722 0.0556 0.0000  plane waves:   42880
 k-point 31 :   0.4444 0.1111 0.0000  plane waves:   42906
 k-point 32 :   0.4167 0.1667 0.0000  plane waves:   42864
 k-point 33 :   0.3889 0.2222 0.0000  plane waves:   42904
 k-point 34 :   0.3611 0.2778 0.0000  plane waves:   42882
 k-point 35 :   0.3333 0.3333 0.0000  plane waves:   42816
 k-point 36 :   0.2778 0.2778 0.0000  plane waves:   42906
 k-point 37 :   0.2222 0.2222 0.0000  plane waves:   42886
 k-point 38 :   0.1667 0.1667 0.0000  plane waves:   42876
 k-point 39 :   0.1111 0.1111 0.0000  plane waves:   42888
 k-point 40 :   0.0556 0.0556 0.0000  plane waves:   42794
 k-point 41 :  -0.0556-0.0556 0.0000  plane waves:   42794
 k-point 42 :  -0.1111-0.1111 0.0000  plane waves:   42888
 k-point 43 :  -0.1667-0.1667 0.0000  plane waves:   42876
 k-point 44 :  -0.2222-0.2222 0.0000  plane waves:   42886
 k-point 45 :  -0.2778-0.2778 0.0000  plane waves:   42906
 k-point 46 :  -0.3889-0.3889 0.0000  plane waves:   42904
 k-point 47 :  -0.4444-0.4444 0.0000  plane waves:   42906
 k-point 48 :   0.5000 0.5000 0.0000  plane waves:   42830
 k-point 49 :   0.4444 0.4444 0.0000  plane waves:   42906
 k-point 50 :   0.3889 0.3889 0.0000  plane waves:   42904

 maximum and minimum number of plane-waves per node :     42910    42745

 maximum number of plane-waves:     42910
 maximum index in each direction: 
   IXMAX=   18   IYMAX=   18   IZMAX=   36
   IXMIN=  -18   IYMIN=  -18   IZMIN=  -36


 serial   3D FFT for wavefunctions
 parallel 3D FFT for charge:
    minimum data exchange during FFTs selected (reduces bandwidth)


 total amount of memory used by VASP MPI-rank0   558630. kBytes
=======================================================================

   base      :      30000. kBytes
   nonlr-proj:       3592. kBytes
   fftplans  :       4693. kBytes
   grid      :      35926. kBytes
   one-center:        221. kBytes
   wavefun   :     484198. kBytes
 
     INWAV:  cpu time   32.2522: real time   32.3716
 initial charge density was supplied:
 number of electron     142.9999898 magnetization       0.6357747
 keeping initial charge density in first step


--------------------------------------------------------------------------------------------------------


 Maximum index for non-local projection operator         2302
 Maximum index for augmentation-charges          344 (set IRDMAX)


--------------------------------------------------------------------------------------------------------


 First call to EWALD:  gamma=   0.149
 Maximum number of real-space cells 4x 4x 2
 Maximum number of reciprocal cells 2x 2x 4

    FEWALD:  cpu time    0.0026: real time    0.0026


--------------------------------------- Iteration      1(   1)  ---------------------------------------


    POTLOK:  cpu time    0.1815: real time    0.1967
    SETDIJ:  cpu time    0.0094: real time    0.0095
     EDDAV:  cpu time  102.6232: real time  103.3015
       DOS:  cpu time    0.0048: real time    0.0048
    --------------------------------------------
      LOOP:  cpu time  102.8189: real time  103.5125

 eigenvalue-minimisations  : 40712
 total energy-change (2. order) :-0.3046345E+03  (-0.8099963E+02)
 number of electron     142.9999898 magnetization       0.6357747
 augmentation part      142.9999898 magnetization       0.6357747

 DIPCOR: dipole corrections for dipol
 direction  3 min pos    28,
 dipolmoment           0.000000      0.000000     -0.469651 electrons x Angstroem
 Tr[quadrupol]     -2692.641861

 energy correction for charged system         0.000000 eV
 dipol+quadrupol energy correction           -0.011818 eV
 added-field ion interaction        -14.393444 eV  (added to PSCEN)


 Free energy of the ion-electron system (eV)
  ---------------------------------------------------
  alpha Z        PSCENC =        46.85273630
  Ewald energy   TEWEN  =     21374.57492681
  -Hartree energ DENC   =    -26341.88625210
  -exchange      EXHF   =         0.00000000
  -V(xc)+E(xc)   XCENC  =       519.09303088
  PAW double counting   =      3018.56086570    -3150.74910237
  entropy T*S    EENTRO =        -0.00306876
  eigenvalues    EBANDS =     -1703.19825248
  atomic energy  EATOM  =      5932.12059872
  Solvation  Ediel_sol  =         0.00000000
  ---------------------------------------------------
  free energy    TOTEN  =      -304.63451730 eV

  energy without entropy =     -304.63144854  energy(sigma->0) =     -304.63298292


--------------------------------------------------------------------------------------------------------




--------------------------------------- Iteration      1(   2)  ---------------------------------------


    EDDIAG:  cpu time   21.9564: real time   21.9993
  RMM-DIIS:  cpu time  109.6912: real time  110.0243
    ORTHCH:  cpu time    3.6195: real time    3.6221
       DOS:  cpu time    0.0026: real time    0.0026
    --------------------------------------------
      LOOP:  cpu time  135.2697: real time  135.6483

 eigenvalue-minimisations  : 58034
 total energy-change (2. order) :-0.5672755E+01  (-0.5670595E+01)
 number of electron     142.9999898 magnetization       0.6357747
 augmentation part      142.9999898 magnetization       0.6357747

 DIPCOR: dipole corrections for dipol
 direction  3 min pos    28,
 dipolmoment           0.000000      0.000000     -0.469651 electrons x Angstroem
 Tr[quadrupol]     -2692.641861

 energy correction for charged system         0.000000 eV
 dipol+quadrupol energy correction           -0.011818 eV
 added-field ion interaction        -14.393444 eV  (added to PSCEN)


 Free energy of the ion-electron system (eV)
  ---------------------------------------------------
  alpha Z        PSCENC =        46.85273630
  Ewald energy   TEWEN  =     21374.57492681
  -Hartree energ DENC   =    -26341.88625210
  -exchange      EXHF   =         0.00000000
  -V(xc)+E(xc)   XCENC  =       519.09303088
  PAW double counting   =      3018.56086570    -3150.74910237
  entropy T*S    EENTRO =        -0.00413057
  eigenvalues    EBANDS =     -1708.86994599
  atomic energy  EATOM  =      5932.12059872
  Solvation  Ediel_sol  =         0.00000000
  ---------------------------------------------------
  free energy    TOTEN  =      -310.30727262 eV

  energy without entropy =     -310.30314205  energy(sigma->0) =     -310.30520733


--------------------------------------------------------------------------------------------------------




--------------------------------------- Iteration      1(   3)  ---------------------------------------


    EDDIAG:  cpu time   21.9677: real time   21.9890
  RMM-DIIS:  cpu time  126.9435: real time  127.4802
    ORTHCH:  cpu time    3.6261: real time    3.6785
       DOS:  cpu time    0.0025: real time    0.0025
    --------------------------------------------
      LOOP:  cpu time  152.5397: real time  153.1503

 eigenvalue-minimisations  : 66748
 total energy-change (2. order) : 0.1477258E+00  (-0.1868843E+00)
 number of electron     142.9999898 magnetization       0.6357747
 augmentation part      142.9999898 magnetization       0.6357747

 DIPCOR: dipole corrections for dipol
 direction  3 min pos    28,
 dipolmoment           0.000000      0.000000     -0.469651 electrons x Angstroem
 Tr[quadrupol]     -2692.641861

 energy correction for charged system         0.000000 eV
 dipol+quadrupol energy correction           -0.011818 eV
 added-field ion interaction        -14.393444 eV  (added to PSCEN)


 Free energy of the ion-electron system (eV)
  ---------------------------------------------------
  alpha Z        PSCENC =        46.85273630
  Ewald energy   TEWEN  =     21374.57492681
  -Hartree energ DENC   =    -26341.88625210
  -exchange      EXHF   =         0.00000000
  -V(xc)+E(xc)   XCENC  =       519.09303088
  PAW double counting   =      3018.56086570    -3150.74910237
  entropy T*S    EENTRO =        -0.00379119
  eigenvalues    EBANDS =     -1708.72255958
  atomic energy  EATOM  =      5932.12059872
  Solvation  Ediel_sol  =         0.00000000
  ---------------------------------------------------
  free energy    TOTEN  =      -310.15954682 eV

  energy without entropy =     -310.15575563  energy(sigma->0) =     -310.15765123


--------------------------------------------------------------------------------------------------------




--------------------------------------- Iteration      1(   4)  ---------------------------------------


    EDDIAG:  cpu time   22.2855: real time   22.3422
  RMM-DIIS:  cpu time  133.8878: real time  134.4971
    ORTHCH:  cpu time    3.6046: real time    3.6157
       DOS:  cpu time    0.0025: real time    0.0025
    --------------------------------------------
      LOOP:  cpu time  159.7804: real time  160.4575

 eigenvalue-minimisations  : 70138
 total energy-change (2. order) :-0.1707820E-01  (-0.1967764E-01)
 number of electron     142.9999898 magnetization       0.6357747
 augmentation part      142.9999898 magnetization       0.6357747

 DIPCOR: dipole corrections for dipol
 direction  3 min pos    28,
 dipolmoment           0.000000      0.000000     -0.469651 electrons x Angstroem
 Tr[quadrupol]     -2692.641861

 energy correction for charged system         0.000000 eV
 dipol+quadrupol energy correction           -0.011818 eV
 added-field ion interaction        -14.393444 eV  (added to PSCEN)


 Free energy of the ion-electron system (eV)
  ---------------------------------------------------
  alpha Z        PSCENC =        46.85273630
  Ewald energy   TEWEN  =     21374.57492681
  -Hartree energ DENC   =    -26341.88625210
  -exchange      EXHF   =         0.00000000
  -V(xc)+E(xc)   XCENC  =       519.09303088
  PAW double counting   =      3018.56086570    -3150.74910237
  entropy T*S    EENTRO =        -0.00377014
  eigenvalues    EBANDS =     -1708.73965882
  atomic energy  EATOM  =      5932.12059872
  Solvation  Ediel_sol  =         0.00000000
  ---------------------------------------------------
  free energy    TOTEN  =      -310.17662502 eV

  energy without entropy =     -310.17285488  energy(sigma->0) =     -310.17473995


--------------------------------------------------------------------------------------------------------




--------------------------------------- Iteration      1(   5)  ---------------------------------------


    EDDIAG:  cpu time   21.9947: real time   22.1060
  RMM-DIIS:  cpu time  132.1546: real time  132.7224
    ORTHCH:  cpu time    3.6021: real time    3.6059
       DOS:  cpu time    0.0025: real time    0.0025
    --------------------------------------------
      LOOP:  cpu time  157.7539: real time  158.4368

 eigenvalue-minimisations  : 67987
 total energy-change (2. order) :-0.3099547E-03  (-0.6565676E-03)
 number of electron     142.9999898 magnetization       0.6357747
 augmentation part      142.9999898 magnetization       0.6357747

 DIPCOR: dipole corrections for dipol
 direction  3 min pos    28,
 dipolmoment           0.000000      0.000000     -0.469651 electrons x Angstroem
 Tr[quadrupol]     -2692.641861

 energy correction for charged system         0.000000 eV
 dipol+quadrupol energy correction           -0.011818 eV
 added-field ion interaction        -14.393444 eV  (added to PSCEN)


 Free energy of the ion-electron system (eV)
  ---------------------------------------------------
  alpha Z        PSCENC =        46.85273630
  Ewald energy   TEWEN  =     21374.57492681
  -Hartree energ DENC   =    -26341.88625210
  -exchange      EXHF   =         0.00000000
  -V(xc)+E(xc)   XCENC  =       519.09303088
  PAW double counting   =      3018.56086570    -3150.74910237
  entropy T*S    EENTRO =        -0.00376816
  eigenvalues    EBANDS =     -1708.73997077
  atomic energy  EATOM  =      5932.12059872
  Solvation  Ediel_sol  =         0.00000000
  ---------------------------------------------------
  free energy    TOTEN  =      -310.17693498 eV

  energy without entropy =     -310.17316682  energy(sigma->0) =     -310.17505090


--------------------------------------------------------------------------------------------------------




--------------------------------------- Iteration      1(   6)  ---------------------------------------


    EDDIAG:  cpu time   21.9809: real time   22.0237
  RMM-DIIS:  cpu time  136.0106: real time  136.4797
    ORTHCH:  cpu time    3.6451: real time    3.6560
       DOS:  cpu time    0.0025: real time    0.0025
    --------------------------------------------
      LOOP:  cpu time  161.6391: real time  162.1618

 eigenvalue-minimisations  : 71020
 total energy-change (2. order) :-0.3994965E-04  (-0.6575985E-04)
 number of electron     142.9999898 magnetization       0.6357747
 augmentation part      142.9999898 magnetization       0.6357747

 DIPCOR: dipole corrections for dipol
 direction  3 min pos    28,
 dipolmoment           0.000000      0.000000     -0.469651 electrons x Angstroem
 Tr[quadrupol]     -2692.641861

 energy correction for charged system         0.000000 eV
 dipol+quadrupol energy correction           -0.011818 eV
 added-field ion interaction        -14.393444 eV  (added to PSCEN)


 Free energy of the ion-electron system (eV)
  ---------------------------------------------------
  alpha Z        PSCENC =        46.85273630
  Ewald energy   TEWEN  =     21374.57492681
  -Hartree energ DENC   =    -26341.88625210
  -exchange      EXHF   =         0.00000000
  -V(xc)+E(xc)   XCENC  =       519.09303088
  PAW double counting   =      3018.56086570    -3150.74910237
  entropy T*S    EENTRO =        -0.00376854
  eigenvalues    EBANDS =     -1708.74001033
  atomic energy  EATOM  =      5932.12059872
  Solvation  Ediel_sol  =         0.00000000
  ---------------------------------------------------
  free energy    TOTEN  =      -310.17697493 eV

  energy without entropy =     -310.17320638  energy(sigma->0) =     -310.17509065


--------------------------------------------------------------------------------------------------------




--------------------------------------- Iteration      1(   7)  ---------------------------------------


    EDDIAG:  cpu time   21.9627: real time   22.0438
  RMM-DIIS:  cpu time  128.7865: real time  129.1216
    ORTHCH:  cpu time    3.6107: real time    3.6131
       DOS:  cpu time    0.0025: real time    0.0025
    --------------------------------------------
      LOOP:  cpu time  154.3623: real time  154.7810

 eigenvalue-minimisations  : 66388
 total energy-change (2. order) :-0.1507333E-05  (-0.3874370E-05)
 number of electron     142.9999898 magnetization       0.6357747
 augmentation part      142.9999898 magnetization       0.6357747

 DIPCOR: dipole corrections for dipol
 direction  3 min pos    28,
 dipolmoment           0.000000      0.000000     -0.469651 electrons x Angstroem
 Tr[quadrupol]     -2692.641861

 energy correction for charged system         0.000000 eV
 dipol+quadrupol energy correction           -0.011818 eV
 added-field ion interaction        -14.393444 eV  (added to PSCEN)


 Free energy of the ion-electron system (eV)
  ---------------------------------------------------
  alpha Z        PSCENC =        46.85273630
  Ewald energy   TEWEN  =     21374.57492681
  -Hartree energ DENC   =    -26341.88625210
  -exchange      EXHF   =         0.00000000
  -V(xc)+E(xc)   XCENC  =       519.09303088
  PAW double counting   =      3018.56086570    -3150.74910237
  entropy T*S    EENTRO =        -0.00376871
  eigenvalues    EBANDS =     -1708.74001167
  atomic energy  EATOM  =      5932.12059872
  Solvation  Ediel_sol  =         0.00000000
  ---------------------------------------------------
  free energy    TOTEN  =      -310.17697643 eV

  energy without entropy =     -310.17320772  energy(sigma->0) =     -310.17509208


--------------------------------------------------------------------------------------------------------




--------------------------------------- Iteration      1(   8)  ---------------------------------------


    EDDIAG:  cpu time   21.9979: real time   22.0409
  RMM-DIIS:  cpu time  122.0302: real time  122.3877
    ORTHCH:  cpu time    3.6166: real time    3.6666
       DOS:  cpu time    0.0024: real time    0.0024
    --------------------------------------------
      LOOP:  cpu time  147.6470: real time  148.0976

 eigenvalue-minimisations  : 62164
 total energy-change (2. order) :-0.3726009E-06  (-0.6568638E-06)
 number of electron     142.9999898 magnetization       0.6357747
 augmentation part      142.9999898 magnetization       0.6357747

 DIPCOR: dipole corrections for dipol
 direction  3 min pos    28,
 dipolmoment           0.000000      0.000000     -0.469651 electrons x Angstroem
 Tr[quadrupol]     -2692.641861

 energy correction for charged system         0.000000 eV
 dipol+quadrupol energy correction           -0.011818 eV
 added-field ion interaction        -14.393444 eV  (added to PSCEN)


 Free energy of the ion-electron system (eV)
  ---------------------------------------------------
  alpha Z        PSCENC =        46.85273630
  Ewald energy   TEWEN  =     21374.57492681
  -Hartree energ DENC   =    -26341.88625210
  -exchange      EXHF   =         0.00000000
  -V(xc)+E(xc)   XCENC  =       519.09303088
  PAW double counting   =      3018.56086570    -3150.74910237
  entropy T*S    EENTRO =        -0.00376878
  eigenvalues    EBANDS =     -1708.74001197
  atomic energy  EATOM  =      5932.12059872
  Solvation  Ediel_sol  =         0.00000000
  ---------------------------------------------------
  free energy    TOTEN  =      -310.17697681 eV

  energy without entropy =     -310.17320802  energy(sigma->0) =     -310.17509241


--------------------------------------------------------------------------------------------------------




--------------------------------------- Iteration      1(   9)  ---------------------------------------


    EDDIAG:  cpu time   21.9581: real time   22.0092
  RMM-DIIS:  cpu time  111.0593: real time  111.3233
    ORTHCH:  cpu time    3.5988: real time    3.5994
       DOS:  cpu time    0.0025: real time    0.0025
    --------------------------------------------
      LOOP:  cpu time  136.6188: real time  136.9344

 eigenvalue-minimisations  : 56342
 total energy-change (2. order) :-0.7822109E-07  (-0.1478029E-06)
 number of electron     142.9999898 magnetization       0.6357747
 augmentation part      142.9999898 magnetization       0.6357747

 DIPCOR: dipole corrections for dipol
 direction  3 min pos    28,
 dipolmoment           0.000000      0.000000     -0.469651 electrons x Angstroem
 Tr[quadrupol]     -2692.641861

 energy correction for charged system         0.000000 eV
 dipol+quadrupol energy correction           -0.011818 eV
 added-field ion interaction        -14.393444 eV  (added to PSCEN)


 Free energy of the ion-electron system (eV)
  ---------------------------------------------------
  alpha Z        PSCENC =        46.85273630
  Ewald energy   TEWEN  =     21374.57492681
  -Hartree energ DENC   =    -26341.88625210
  -exchange      EXHF   =         0.00000000
  -V(xc)+E(xc)   XCENC  =       519.09303088
  PAW double counting   =      3018.56086570    -3150.74910237
  entropy T*S    EENTRO =        -0.00376881
  eigenvalues    EBANDS =     -1708.74001202
  atomic energy  EATOM  =      5932.12059872
  Solvation  Ediel_sol  =         0.00000000
  ---------------------------------------------------
  free energy    TOTEN  =      -310.17697688 eV

  energy without entropy =     -310.17320807  energy(sigma->0) =     -310.17509248


--------------------------------------------------------------------------------------------------------




--------------------------------------- Iteration      1(  10)  ---------------------------------------


    EDDIAG:  cpu time   21.9744: real time   21.9991
  RMM-DIIS:  cpu time  107.0309: real time  107.7420
    ORTHCH:  cpu time    3.6076: real time    3.6088
       DOS:  cpu time    0.0026: real time    0.0026
    --------------------------------------------
      LOOP:  cpu time  132.6154: real time  133.3524

 eigenvalue-minimisations  : 54216
 total energy-change (2. order) :-0.3000878E-07  (-0.5422657E-07)
 number of electron     142.9999898 magnetization       0.6357747
 augmentation part      142.9999898 magnetization       0.6357747

 DIPCOR: dipole corrections for dipol
 direction  3 min pos    28,
 dipolmoment           0.000000      0.000000     -0.469651 electrons x Angstroem
 Tr[quadrupol]     -2692.641861

 energy correction for charged system         0.000000 eV
 dipol+quadrupol energy correction           -0.011818 eV
 added-field ion interaction        -14.393444 eV  (added to PSCEN)


 Free energy of the ion-electron system (eV)
  ---------------------------------------------------
  alpha Z        PSCENC =        46.85273630
  Ewald energy   TEWEN  =     21374.57492681
  -Hartree energ DENC   =    -26341.88625210
  -exchange      EXHF   =         0.00000000
  -V(xc)+E(xc)   XCENC  =       519.09303088
  PAW double counting   =      3018.56086570    -3150.74910237
  entropy T*S    EENTRO =        -0.00376882
  eigenvalues    EBANDS =     -1708.74001204
  atomic energy  EATOM  =      5932.12059872
  Solvation  Ediel_sol  =         0.00000000
  ---------------------------------------------------
  free energy    TOTEN  =      -310.17697691 eV

  energy without entropy =     -310.17320809  energy(sigma->0) =     -310.17509250


--------------------------------------------------------------------------------------------------------




 average (electrostatic) potential at core
  the test charge radii are     0.6991  0.9254  0.7215  0.5201
  (the norm of the test charge is              1.0000)
       1 -57.4772       2 -57.4769       3 -57.4634       4 -57.4633       5 -57.5140
       6 -57.5565       7 -57.5137       8 -57.4706       9 -57.4955      10 -57.5805
      11 -57.5799      12 -57.4952      13 -57.4714      14 -57.4828      15 -57.4907
      16 -57.4827      17 -57.4828      18 -57.4906      19 -57.4826      20 -57.4715
      21 -57.4952      22 -57.5806      23 -57.5801      24 -57.4952      25 -57.4707
      26 -57.5142      27 -57.5564      28 -57.5137      29 -57.4633      30 -57.4632
      31 -57.4772      32 -57.4772      33 -53.3331      34 -79.9706      35 -43.7257
      36 -43.7463
 
 
 
 E-fermi :  -1.5014     XC(G=0):  -2.6223     alpha+bet : -2.1834


 spin component 1

 k-point     1 :       0.0000    0.0000    0.0000
  band No.  band energies     occupation 
      1     -27.5831      1.00000
      2     -27.5718      1.00000
      3     -27.5139      1.00000
      4     -24.6202      1.00000
      5     -21.5813      1.00000
      6     -20.1404      1.00000
      7     -20.1362      1.00000
      8     -20.1177      1.00000
      9     -20.1098      1.00000
     10     -20.1039      1.00000
     11     -20.0964      1.00000
     12     -17.3158      1.00000
     13     -17.3145      1.00000
     14     -17.3055      1.00000
     15     -17.3021      1.00000
     16     -17.2891      1.00000
     17     -17.2880      1.00000
     18     -16.3538      1.00000
     19     -16.3526      1.00000
     20     -16.3432      1.00000
     21     -15.2979      1.00000
     22     -15.2961      1.00000
     23     -15.2943      1.00000
     24     -12.6203      1.00000
     25     -12.6027      1.00000
     26     -12.6026      1.00000
     27     -12.6003      1.00000
     28     -12.5968      1.00000
     29     -12.5961      1.00000
     30     -12.2960      1.00000
     31     -11.0217      1.00000
     32     -11.0183      1.00000
     33     -11.0143      1.00000
     34     -11.0139      1.00000
     35     -11.0113      1.00000
     36     -11.0062      1.00000
     37      -9.8425      1.00000
     38      -9.5085      1.00000
     39      -9.5032      1.00000
     40      -9.4996      1.00000
     41      -9.4972      1.00000
     42      -9.4956      1.00000
     43      -9.4870      1.00000
     44      -9.3009      1.00000
     45      -8.4831      1.00000
     46      -8.4805      1.00000
     47      -8.4743      1.00000
     48      -8.0332      1.00000
     49      -8.0190      1.00000
     50      -7.9770      1.00000
     51      -7.9699      1.00000
     52      -7.9581      1.00000
     53      -7.9443      1.00000
     54      -7.1267      1.00000
     55      -7.1231      1.00000
     56      -7.1215      1.00000
     57      -7.1106      1.00000
     58      -7.1049      1.00000
     59      -7.1030      1.00000
     60      -6.7195      1.00000
     61      -5.1100      1.00000
     62      -5.1094      1.00000
     63      -4.9032      1.00000
     64      -4.8685      1.00000
     65      -4.8495      1.00000
     66      -4.8478      1.00000
     67      -4.8264      1.00000
     68      -4.8198      1.00000
     69      -4.4779      1.00000
     70      -4.4684      1.00000
     71      -4.4559      1.00000
     72      -1.5390      0.98322
     73      -0.4769      0.00000
     74      -0.4609      0.00000
     75      -0.4475      0.00000
     76       0.3277      0.00000
     77       0.6362      0.00000
     78       0.6686      0.00000
     79       0.6730      0.00000
     80       0.6771      0.00000
     81       0.6983      0.00000
     82       0.7072      0.00000
     83       0.7235      0.00000
     84       0.7751      0.00000
     85       0.9300      0.00000
     86       1.4483      0.00000
     87       1.8183      0.00000
     88       1.9707      0.00000
     89       1.9864      0.00000
     90       2.2944      0.00000
     91       2.2975      0.00000
     92       2.4076      0.00000
     93       2.5053      0.00000
     94       2.5940      0.00000
     95       2.8740      0.00000
     96       2.8811      0.00000
     97       2.9337      0.00000
     98       3.0463      0.00000
     99       3.1552      0.00000
    100       3.2269      0.00000
    101       3.4132      0.00000
    102       3.4191      0.00000
    103       3.5372      0.00000
    104       3.7648      0.00000
    105       3.8676      0.00000
    106       3.8934      0.00000
    107       3.9439      0.00000
    108       4.0656      0.00000
    109       4.1750      0.00000
    110       4.1770      0.00000
    111       4.3219      0.00000
    112       4.3557      0.00000
    113       4.6294      0.00000
    114       4.7236      0.00000
    115       4.7409      0.00000
    116       4.7554      0.00000
    117       4.9325      0.00000
    118       5.0659      0.00000
    119       5.1048      0.00000
    120       5.1198      0.00000
    121       5.1285      0.00000
    122       5.1548      0.00000
    123       5.1807      0.00000
    124       5.1972      0.00000
    125       5.2627      0.00000
    126       5.3457      0.00000
    127       5.3826      0.00000
    128       5.3890      0.00000
    129       5.3425      0.00000
    130       5.4452      0.00000
    131       5.5114      0.00000
    132       5.5581      0.00000
    133       5.7386      0.00000
    134       5.9071      0.00000
    135       5.9187      0.00000
    136       5.9430      0.00000
    137       5.9882      0.00000
    138       5.9591      0.00000
    139       6.0888      0.00000
    140       6.2057      0.00000
    141       6.1967      0.00000
    142       6.2937      0.00000
    143       6.3442      0.00000
    144       6.4049      0.00000
    145       6.4052      0.00000
    146       6.4705      0.00000
    147       6.5101      0.00000
    148       6.5685      0.00000
    149       6.5544      0.00000
    150       6.6747      0.00000
    151       6.7220      0.00000
    152       6.7748      0.00000
    153       6.7008      0.00000
    154       7.0358      0.00000
    155       7.0568      0.00000
    156       7.1597      0.00000
    157       7.2224      0.00000
    158       7.2293      0.00000
    159       7.2615      0.00000
    160       7.2812      0.00000
    161       7.2499      0.00000
    162       7.2832      0.00000
    163       7.4250      0.00000
    164       7.4768      0.00000
    165       7.6265      0.00000
    166       7.6520      0.00000
    167       7.6986      0.00000
    168       7.7304      0.00000
    169       7.7352      0.00000
    170       7.7943      0.00000
    171       7.8181      0.00000
    172       7.8152      0.00000
    173       7.9191      0.00000
    174       7.9213      0.00000
    175       8.1458      0.00000
    176       8.2978      0.00000
    177       8.3587      0.00000
    178       8.4106      0.00000
    179       8.5293      0.00000
    180       8.6691      0.00000
    181       8.7601      0.00000
    182       8.7367      0.00000
    183       8.8386      0.00000
    184       8.9766      0.00000
    185       9.0215      0.00000
    186       9.1395      0.00000
    187       9.3053      0.00000
    188       9.3513      0.00000
    189       9.4782      0.00000
    190       9.6494      0.00000
    191       9.8402      0.00000
    192       9.8728      0.00000
    193      10.0077      0.00000
    194      10.7162      0.00000
    195      10.8892      0.00000
    196      12.2223      0.00000

 k-point     2 :       0.0833    0.0000    0.0000
  band No.  band energies     occupation 
      1     -27.5831      1.00000
      2     -27.5718      1.00000
      3     -27.5139      1.00000
      4     -24.6202      1.00000
      5     -21.5711      1.00000
      6     -20.3520      1.00000
      7     -20.2283      1.00000
      8     -20.2262      1.00000
      9     -19.9904      1.00000
     10     -19.9846      1.00000
     11     -19.8638      1.00000
     12     -17.6353      1.00000
     13     -17.6314      1.00000
     14     -17.2945      1.00000
     15     -17.2915      1.00000
     16     -16.9602      1.00000
     17     -16.9566      1.00000
     18     -16.5145      1.00000
     19     -16.3921      1.00000
     20     -16.3856      1.00000
     21     -15.2409      1.00000
     22     -15.2393      1.00000
     23     -15.1162      1.00000
     24     -12.9259      1.00000
     25     -12.9230      1.00000
     26     -12.6914      1.00000
     27     -12.6847      1.00000
     28     -12.3338      1.00000
     29     -12.3107      1.00000
     30     -12.2795      1.00000
     31     -11.2752      1.00000
     32     -11.2738      1.00000
     33     -10.9295      1.00000
     34     -10.9249      1.00000
     35     -10.6980      1.00000
     36     -10.6972      1.00000
     37     -10.0489      1.00000
     38      -9.8351      1.00000
     39      -9.7738      1.00000
     40      -9.7698      1.00000
     41      -9.3037      1.00000
     42      -9.2269      1.00000
     43      -9.2242      1.00000
     44      -8.9534      1.00000
     45      -8.5147      1.00000
     46      -8.5086      1.00000
     47      -8.4689      1.00000
     48      -8.2468      1.00000
     49      -8.1281      1.00000
     50      -8.0940      1.00000
     51      -7.8467      1.00000
     52      -7.8241      1.00000
     53      -7.6944      1.00000
     54      -7.3187      1.00000
     55      -7.2504      1.00000
     56      -7.2485      1.00000
     57      -7.0421      1.00000
     58      -7.0416      1.00000
     59      -6.9022      1.00000
     60      -6.7193      1.00000
     61      -5.2162      1.00000
     62      -5.1963      1.00000
     63      -5.1523      1.00000
     64      -5.1319      1.00000
     65      -4.8461      1.00000
     66      -4.8424      1.00000
     67      -4.5643      1.00000
     68      -4.4978      1.00000
     69      -4.4901      1.00000
     70      -4.4662      1.00000
     71      -4.4557      1.00000
     72      -1.5354      0.97263
     73      -0.4575      0.00000
     74      -0.4359      0.00000
     75      -0.3729      0.00000
     76       0.2675      0.00000
     77       0.2910      0.00000
     78       0.3479      0.00000
     79       0.5917      0.00000
     80       0.6646      0.00000
     81       0.6707      0.00000
     82       0.7477      0.00000
     83       0.9922      0.00000
     84       1.0879      0.00000
     85       1.1074      0.00000
     86       1.4792      0.00000
     87       1.8037      0.00000
     88       1.9092      0.00000
     89       2.0071      0.00000
     90       2.1776      0.00000
     91       2.3570      0.00000
     92       2.4791      0.00000
     93       2.5245      0.00000
     94       2.6060      0.00000
     95       2.7918      0.00000
     96       2.8400      0.00000
     97       2.9502      0.00000
     98       3.0663      0.00000
     99       3.2375      0.00000
    100       3.2526      0.00000
    101       3.3638      0.00000
    102       3.4955      0.00000
    103       3.6120      0.00000
    104       3.7364      0.00000
    105       3.8142      0.00000
    106       3.8654      0.00000
    107       3.9640      0.00000
    108       4.0693      0.00000
    109       4.1548      0.00000
    110       4.2409      0.00000
    111       4.2985      0.00000
    112       4.4049      0.00000
    113       4.6138      0.00000
    114       4.6665      0.00000
    115       4.6731      0.00000
    116       4.7374      0.00000
    117       4.7977      0.00000
    118       4.8607      0.00000
    119       4.8709      0.00000
    120       4.9242      0.00000
    121       5.0458      0.00000
    122       5.1132      0.00000
    123       5.2689      0.00000
    124       5.2782      0.00000
    125       5.3092      0.00000
    126       5.3233      0.00000
    127       5.4702      0.00000
    128       5.4815      0.00000
    129       5.4591      0.00000
    130       5.6421      0.00000
    131       5.6525      0.00000
    132       5.8395      0.00000
    133       5.8745      0.00000
    134       5.9649      0.00000
    135       5.9776      0.00000
    136       5.9712      0.00000
    137       5.9899      0.00000
    138       6.0446      0.00000
    139       6.1268      0.00000
    140       6.1613      0.00000
    141       6.1547      0.00000
    142       6.1616      0.00000
    143       6.3213      0.00000
    144       6.3698      0.00000
    145       6.3928      0.00000
    146       6.4560      0.00000
    147       6.5624      0.00000
    148       6.4417      0.00000
    149       6.7088      0.00000
    150       6.7035      0.00000
    151       6.8098      0.00000
    152       6.8498      0.00000
    153       6.9359      0.00000
    154       6.9506      0.00000
    155       6.9645      0.00000
    156       7.1085      0.00000
    157       7.1213      0.00000
    158       7.2194      0.00000
    159       7.2470      0.00000
    160       7.3108      0.00000
    161       7.3633      0.00000
    162       7.3541      0.00000
    163       7.3844      0.00000
    164       7.4829      0.00000
    165       7.5518      0.00000
    166       7.5889      0.00000
    167       7.6699      0.00000
    168       7.7250      0.00000
    169       7.7253      0.00000
    170       7.7757      0.00000
    171       7.8975      0.00000
    172       7.9561      0.00000
    173       8.0783      0.00000
    174       8.0946      0.00000
    175       8.1982      0.00000
    176       8.2475      0.00000
    177       8.2501      0.00000
    178       8.2802      0.00000
    179       8.4822      0.00000
    180       8.4540      0.00000
    181       8.5307      0.00000
    182       8.6599      0.00000
    183       8.7620      0.00000
    184       8.8747      0.00000
    185       8.9458      0.00000
    186       9.1185      0.00000
    187       9.2245      0.00000
    188       9.2833      0.00000
    189       9.2936      0.00000
    190       9.4280      0.00000
    191       9.5549      0.00000
    192       9.6564      0.00000
    193       9.9100      0.00000
    194       9.9644      0.00000
    195      10.5518      0.00000
    196      12.5412      0.00000

 k-point     3 :       0.1667    0.0000    0.0000
  band No.  band energies     occupation 
      1     -27.5831      1.00000
      2     -27.5718      1.00000
      3     -27.5139      1.00000
      4     -24.6202      1.00000
      5     -21.5404      1.00000
      6     -20.5632      1.00000
      7     -20.3199      1.00000
      8     -20.3172      1.00000
      9     -19.8390      1.00000
     10     -19.8341      1.00000
     11     -19.5947      1.00000
     12     -17.9505      1.00000
     13     -17.9466      1.00000
     14     -17.2667      1.00000
     15     -17.2637      1.00000
     16     -16.8510      1.00000
     17     -16.6051      1.00000
     18     -16.6017      1.00000
     19     -16.4896      1.00000
     20     -16.4840      1.00000
     21     -15.0918      1.00000
     22     -15.0907      1.00000
     23     -14.7345      1.00000
     24     -13.2779      1.00000
     25     -13.2755      1.00000
     26     -12.9013      1.00000
     27     -12.8965      1.00000
     28     -12.3060      1.00000
     29     -12.0478      1.00000
     30     -12.0469      1.00000
     31     -11.4765      1.00000
     32     -11.4749      1.00000
     33     -10.7101      1.00000
     34     -10.7055      1.00000
     35     -10.6013      1.00000
     36     -10.3358      1.00000
     37     -10.3352      1.00000
     38     -10.0480      1.00000
     39     -10.0459      1.00000
     40      -9.8031      1.00000
     41      -9.3016      1.00000
     42      -8.9642      1.00000
     43      -8.9622      1.00000
     44      -8.6096      1.00000
     45      -8.6036      1.00000
     46      -8.4831      1.00000
     47      -8.4386      1.00000
     48      -8.4187      1.00000
     49      -8.2322      1.00000
     50      -8.1921      1.00000
     51      -7.6757      1.00000
     52      -7.6575      1.00000
     53      -7.5091      1.00000
     54      -7.4469      1.00000
     55      -7.4450      1.00000
     56      -7.3917      1.00000
     57      -7.0263      1.00000
     58      -7.0254      1.00000
     59      -6.7193      1.00000
[...]
     63      -5.9693      1.00000
     64      -5.9659      1.00000
     65      -5.9396      1.00000
     66      -5.4822      1.00000
     67      -5.4568      1.00000
     68      -4.0550      1.00000
     69      -4.0307      1.00000
     70      -3.6644      1.00000
     71      -2.4928      1.00000
     72      -1.7547      1.00000
     73      -0.7978      0.00000
     74      -0.5839      0.00000
     75      -0.5311      0.00000
     76      -0.4255      0.00000
     77       0.9772      0.00000
     78       1.0046      0.00000
     79       1.0719      0.00000
     80       1.1360      0.00000
     81       1.3064      0.00000
     82       1.6100      0.00000
     83       1.6445      0.00000
     84       1.8400      0.00000
     85       2.0390      0.00000
     86       2.0893      0.00000
     87       2.0990      0.00000
     88       2.1029      0.00000
     89       2.1261      0.00000
     90       2.4095      0.00000
     91       2.5488      0.00000
     92       2.6374      0.00000
     93       2.8041      0.00000
     94       3.0320      0.00000
     95       3.1713      0.00000
     96       3.3314      0.00000
     97       3.3914      0.00000
     98       3.4833      0.00000
     99       3.5479      0.00000
    100       3.7705      0.00000
    101       3.8922      0.00000
    102       3.9013      0.00000
    103       3.9076      0.00000
    104       4.0180      0.00000
    105       4.1610      0.00000
    106       4.1763      0.00000
    107       4.3869      0.00000
    108       4.4492      0.00000
    109       4.5268      0.00000
    110       4.6170      0.00000
    111       4.7038      0.00000
    112       4.7524      0.00000
    113       4.8661      0.00000
    114       4.9351      0.00000
    115       5.0610      0.00000
    116       5.0949      0.00000
    117       5.2157      0.00000
    118       5.2638      0.00000
    119       5.3953      0.00000
    120       5.4469      0.00000
    121       5.5079      0.00000
    122       5.5426      0.00000
    123       5.5748      0.00000
    124       5.7382      0.00000
    125       5.7641      0.00000
    126       5.7907      0.00000
    127       5.7840      0.00000
    128       5.8660      0.00000
    129       5.8840      0.00000
    130       5.8986      0.00000
    131       5.9210      0.00000
    132       6.0316      0.00000
    133       6.0459      0.00000
    134       6.0817      0.00000
    135       6.2159      0.00000
    136       6.2338      0.00000
    137       6.3128      0.00000
    138       6.3503      0.00000
    139       6.4363      0.00000
    140       6.4989      0.00000
    141       6.4993      0.00000
    142       6.5635      0.00000
    143       6.6330      0.00000
    144       6.6596      0.00000
    145       6.6270      0.00000
    146       6.6161      0.00000
    147       6.7970      0.00000
    148       6.8314      0.00000
    149       6.8993      0.00000
    150       6.8853      0.00000
    151       7.0238      0.00000
    152       6.9395      0.00000
    153       7.2269      0.00000
    154       7.2644      0.00000
    155       7.3482      0.00000
    156       7.3623      0.00000
    157       7.4454      0.00000
    158       7.4306      0.00000
    159       7.5527      0.00000
    160       7.6366      0.00000
    161       7.7133      0.00000
    162       7.7417      0.00000
    163       7.7937      0.00000
    164       7.9119      0.00000
    165       7.8903      0.00000
    166       8.0627      0.00000
    167       8.1931      0.00000
    168       8.2436      0.00000
    169       8.2904      0.00000
    170       8.3010      0.00000
    171       8.4092      0.00000
    172       8.4006      0.00000
    173       8.4455      0.00000
    174       8.5299      0.00000
    175       8.5780      0.00000
    176       8.6652      0.00000
    177       8.7379      0.00000
    178       8.7538      0.00000
    179       8.9352      0.00000
    180       8.9158      0.00000
    181       8.9620      0.00000
    182       9.0353      0.00000
    183       9.1174      0.00000
    184       9.2298      0.00000
    185       9.3113      0.00000
    186       9.2900      0.00000
    187       9.3301      0.00000
    188       9.3931      0.00000
    189       9.5398      0.00000
    190       9.5366      0.00000
    191       9.6539      0.00000
    192       9.7513      0.00000
    193       9.8861      0.00000
    194      10.0207      0.00000
    195      10.1607      0.00000
    196      10.3114      0.00000


--------------------------------------------------------------------------------------------------------


 soft charge-density along one line, spin component           1
         0         1         2         3         4         5         6         7         8         9
 total charge-density along one line
 
 soft charge-density along one line, spin component           2
         0         1         2         3         4         5         6         7         8         9
 total charge-density along one line
 
 pseudopotential strength for first ion, spin component:           1
 10.186   0.018   0.000   0.000   0.000  -0.000  -0.000  -0.000
  0.018  -0.002  -0.000  -0.000  -0.000  -0.000  -0.000  -0.000
  0.000  -0.000  -4.305  -0.000   0.000  -0.018   0.000  -0.000
  0.000  -0.000  -0.000  -4.299   0.000   0.000  -0.014   0.000
  0.000  -0.000   0.000   0.000  -4.305  -0.000   0.000  -0.018
 -0.000  -0.000  -0.018   0.000  -0.000  -0.771  -0.000   0.000
 -0.000  -0.000   0.000  -0.014   0.000  -0.000  -0.771   0.000
 -0.000  -0.000  -0.000   0.000  -0.018   0.000   0.000  -0.771
 pseudopotential strength for first ion, spin component:           2
 10.186   0.018   0.000   0.000   0.000  -0.000  -0.000  -0.000
  0.018  -0.002  -0.000  -0.000  -0.000  -0.000  -0.000  -0.000
  0.000  -0.000  -4.305  -0.000   0.000  -0.018   0.000  -0.000
  0.000  -0.000  -0.000  -4.299   0.000   0.000  -0.014   0.000
  0.000  -0.000   0.000   0.000  -4.305  -0.000   0.000  -0.018
 -0.000  -0.000  -0.018   0.000  -0.000  -0.771  -0.000   0.000
 -0.000  -0.000   0.000  -0.014   0.000  -0.000  -0.771   0.000
 -0.000  -0.000  -0.000   0.000  -0.018   0.000   0.000  -0.771
 total augmentation occupancy for first ion, spin component:           1
  2.000   0.000   0.000   0.000   0.000   0.000   0.000   0.000
  0.000   0.000   0.000   0.000   0.000   0.000   0.000   0.000
  0.000   0.000   0.667   0.000   0.000   0.000   0.000   0.000
  0.000   0.000   0.000   0.667   0.000   0.000   0.000   0.000
  0.000   0.000   0.000   0.000   0.667   0.000   0.000   0.000
  0.000   0.000   0.000   0.000   0.000   0.000   0.000   0.000
  0.000   0.000   0.000   0.000   0.000   0.000   0.000   0.000
  0.000   0.000   0.000   0.000   0.000   0.000   0.000   0.000
 total augmentation occupancy for first ion, spin component:           2
  0.500   0.000   0.000   0.000   0.000   0.000   0.000   0.000
  0.000   0.000   0.000   0.000   0.000   0.000   0.000   0.000
  0.000   0.000   0.167   0.000   0.000   0.000   0.000   0.000
  0.000   0.000   0.000   0.167   0.000   0.000   0.000   0.000
  0.000   0.000   0.000   0.000   0.167   0.000   0.000   0.000
  0.000   0.000   0.000   0.000   0.000   0.000   0.000   0.000
  0.000   0.000   0.000   0.000   0.000   0.000   0.000   0.000
  0.000   0.000   0.000   0.000   0.000   0.000   0.000   0.000


------------------------ aborting loop because EDIFF is reached ----------------------------------------


    CHARGE:  cpu time    3.5526: real time    3.5542
    FORLOC:  cpu time    0.0190: real time    0.0190
    FORNL :  cpu time   20.7243: real time   20.7694
    STRESS:  cpu time   62.2324: real time   62.3590
    FORCOR:  cpu time    0.1368: real time    0.1375
    FORHAR:  cpu time    0.0362: real time    0.0823
    OFIELD:  cpu time    0.0015: real time    0.0015

  FORCE on cell =-STRESS in cart. coord.  units (eV):
  Direction    XX          YY          ZZ          XY          YZ          ZX
  --------------------------------------------------------------------------------------
  Alpha Z    61.25800    61.25800    61.25800
  Ewald   25607.16265 25486.86241-29719.46218    -0.13074     0.08503    -0.15564
  Hartree 25557.82685 25535.56696-24656.06511    -0.20379     0.05203    -0.05651
  E(xc)    -540.67950  -541.15757  -558.99864    -0.00064     0.00015     0.00008
  Local  -52659.03129-52551.67244 52599.85145     0.93996    -0.13033     0.16763
  n-local  -167.70713  -168.33205  -160.24343     0.08770    -0.00691     0.01256
  augment    35.30496    37.62122    37.76387    -0.00085    -0.00039     0.00099
  Kinetic  2109.10275  2141.16707  2402.82616     0.04177    -0.00665    -0.00416
  Fock        0.00000     0.00000     0.00000     0.00000     0.00000     0.00000
  -------------------------------------------------------------------------------------
  Total       3.23729     1.31359     6.93012     0.73340    -0.00707    -0.03506
  in kB       3.07132     1.24625     6.57482     0.69580    -0.00671    -0.03327
  external pressure =        3.63 kB  Pullay stress =        0.00 kB


 VOLUME and BASIS-vectors are now :
 -----------------------------------------------------------------------------
  energy-cutoff  :      500.00
  volume of cell :     1688.76
      direct lattice vectors                 reciprocal lattice vectors
     9.874235153  0.000000000  0.000000000     0.101273667  0.058470379  0.000000000
    -4.937117577  8.551338486  0.000000000     0.000000000  0.116940757  0.000000000
     0.000000000  0.000000000 20.000000000     0.000000000  0.000000000  0.050000000

  length of vectors
     9.874235153  9.874235153 20.000000000     0.116940757  0.116940757  0.050000000


 FORCES acting on ions
    electron-ion (+dipol)            ewald-force                    non-local-force                 convergence-correction
 -----------------------------------------------------------------------------------------------
   0.262E+01 0.826E+01 0.312E+02   -.271E+01 -.839E+01 -.316E+02   -.117E-01 0.281E-01 0.734E-01   0.377E-01 0.480E-01 0.376E+00
   -.274E+01 0.826E+01 0.314E+02   0.271E+01 -.839E+01 -.319E+02   -.607E-01 0.281E-01 0.746E-01   0.149E-01 0.466E-01 0.376E+00
   -.197E+01 -.104E+01 0.280E+02   0.197E+01 0.987E+00 -.284E+02   -.624E-01 -.351E-01 0.886E-01   -.966E-02 0.707E-02 0.361E+00
   0.191E+01 -.104E+01 0.271E+02   -.198E+01 0.988E+00 -.275E+02   -.123E-01 -.348E-01 0.428E-01   0.119E-01 0.102E-01 0.363E+00
   0.131E+02 0.792E+01 0.400E+02   -.133E+02 -.812E+01 -.406E+02   0.150E+00 0.108E+00 0.146E+00   0.562E-01 0.430E-01 0.399E+00
   -.609E-01 0.170E+02 0.648E+02   0.485E-02 -.173E+02 -.656E+02   -.384E-01 0.210E+00 0.276E+00   0.238E-01 0.521E-01 0.432E+00
   -.132E+02 0.795E+01 0.382E+02   0.133E+02 -.814E+01 -.388E+02   -.228E+00 0.110E+00 0.932E-01   -.315E-01 0.248E-01 0.401E+00
   -.441E-01 0.234E+01 0.272E+02   -.209E-03 -.245E+01 -.276E+02   -.376E-01 0.170E-01 0.581E-01   0.915E-02 0.166E-01 0.363E+00
   0.870E+01 -.198E+01 0.316E+02   -.887E+01 0.193E+01 -.321E+02   0.506E-01 -.377E-01 0.103E+00   0.533E-01 0.189E-01 0.377E+00
   0.141E+02 -.891E+01 0.655E+02   -.142E+02 0.900E+01 -.664E+02   0.109E+00 -.193E+00 0.495E+00   0.460E-01 0.251E-02 0.434E+00
   -.142E+02 -.888E+01 0.658E+02   0.142E+02 0.900E+01 -.667E+02   -.186E+00 -.192E+00 0.505E+00   -.254E-01 -.128E-01 0.434E+00
   -.881E+01 -.197E+01 0.318E+02   0.886E+01 0.193E+01 -.323E+02   -.124E+00 -.399E-01 0.112E+00   -.164E-01 0.605E-02 0.376E+00
   -.581E-01 -.247E+00 0.270E+02   -.186E-02 0.191E+00 -.274E+02   -.368E-01 -.434E-01 0.822E-01   0.267E-01 0.275E-01 0.354E+00
   0.570E+01 -.682E+01 0.313E+02   -.579E+01 0.685E+01 -.317E+02   -.618E-02 -.120E+00 0.721E-01   0.380E-01 0.621E-02 0.373E+00
   -.350E-01 -.153E+02 0.394E+02   0.403E-03 0.153E+02 -.398E+02   -.376E-01 -.246E+00 0.503E-01   0.121E-02 -.208E-01 0.394E+00
   -.580E+01 -.681E+01 0.313E+02   0.579E+01 0.684E+01 -.318E+02   -.682E-01 -.119E+00 0.803E-01   -.102E-01 -.151E-03 0.375E+00
   0.580E+01 0.682E+01 0.314E+02   -.579E+01 -.685E+01 -.318E+02   0.686E-01 0.119E+00 0.837E-01   0.934E-02 -.457E-03 0.377E+00
   0.328E-01 0.153E+02 0.395E+02   -.123E-02 -.153E+02 -.399E+02   0.370E-01 0.246E+00 0.469E-01   0.145E-02 0.189E-01 0.397E+00
   -.571E+01 0.682E+01 0.311E+02   0.579E+01 -.685E+01 -.316E+02   0.938E-02 0.117E+00 0.848E-01   -.396E-01 -.376E-02 0.378E+00
   0.585E-01 0.244E+00 0.269E+02   0.231E-03 -.190E+00 -.274E+02   0.367E-01 0.430E-01 0.911E-01   -.255E-01 -.248E-01 0.357E+00
   0.881E+01 0.198E+01 0.315E+02   -.887E+01 -.193E+01 -.320E+02   0.125E+00 0.403E-01 0.107E+00   0.148E-01 -.909E-02 0.378E+00
   0.142E+02 0.889E+01 0.656E+02   -.142E+02 -.900E+01 -.666E+02   0.185E+00 0.192E+00 0.492E+00   0.272E-01 0.118E-01 0.434E+00
   -.142E+02 0.891E+01 0.655E+02   0.143E+02 -.901E+01 -.664E+02   -.110E+00 0.192E+00 0.512E+00   -.436E-01 -.231E-02 0.435E+00
   -.871E+01 0.199E+01 0.313E+02   0.887E+01 -.193E+01 -.318E+02   -.446E-01 0.368E-01 0.123E+00   -.557E-01 -.202E-01 0.378E+00
   0.472E-01 -.233E+01 0.280E+02   -.339E-02 0.244E+01 -.284E+02   0.379E-01 -.180E-01 0.895E-01   -.934E-02 -.166E-01 0.360E+00
   0.132E+02 -.794E+01 0.399E+02   -.133E+02 0.812E+01 -.405E+02   0.226E+00 -.109E+00 0.146E+00   0.315E-01 -.246E-01 0.396E+00
   0.523E-01 -.170E+02 0.646E+02   0.959E-03 0.173E+02 -.653E+02   0.373E-01 -.209E+00 0.261E+00   -.199E-01 -.529E-01 0.433E+00
   -.131E+02 -.791E+01 0.401E+02   0.133E+02 0.812E+01 -.407E+02   -.149E+00 -.104E+00 0.144E+00   -.592E-01 -.446E-01 0.396E+00
   -.191E+01 0.104E+01 0.270E+02   0.197E+01 -.988E+00 -.275E+02   0.122E-01 0.349E-01 0.427E-01   -.108E-01 -.907E-02 0.360E+00
   0.197E+01 0.103E+01 0.278E+02   -.197E+01 -.985E+00 -.282E+02   0.629E-01 0.347E-01 0.763E-01   0.713E-02 -.435E-02 0.360E+00
   0.274E+01 -.826E+01 0.312E+02   -.271E+01 0.839E+01 -.316E+02   0.633E-01 -.285E-01 0.605E-01   -.158E-01 -.461E-01 0.373E+00
   -.262E+01 -.826E+01 0.312E+02   0.271E+01 0.839E+01 -.317E+02   0.117E-01 -.283E-01 0.753E-01   -.360E-01 -.490E-01 0.375E+00
   0.615E-02 -.605E-02 -.613E+03   -.647E-02 0.622E-02 0.607E+03   -.405E-03 0.499E-03 0.324E+01   0.624E-03 -.675E-03 0.259E+01
   0.164E+00 -.377E-01 -.525E+03   -.276E+00 0.537E-01 0.564E+03   0.488E-01 -.149E-01 -.408E+02   0.411E-03 -.107E-02 0.266E+01
   0.718E+02 -.308E-01 -.409E+02   -.783E+02 0.328E-01 0.355E+02   0.649E+01 -.251E-02 0.503E+01   0.397E-01 0.407E-03 0.399E+00
   -.720E+02 0.529E-01 -.407E+02   0.785E+02 -.579E-01 0.353E+02   -.653E+01 0.566E-02 0.506E+01   -.392E-01 -.619E-03 0.398E+00
 -----------------------------------------------------------------------------------------------
   -.116E-01 0.149E-01 0.413E+01   0.284E-13 0.364E-13 -.178E-12   0.170E-01 -.949E-02 -.227E+02   0.314E-02 -.351E-02 0.184E+02
 
 
 POSITION                                       TOTAL-FORCE (eV/Angst)
 -----------------------------------------------------------------------------------
      1.23329      0.71105     10.00000        -0.066388     -0.057359     -0.002295
      3.70383      0.71105      9.99949        -0.075139     -0.056436      0.000069
      6.17176      0.71283     10.00000        -0.069431     -0.080174      0.026087
      8.63959      0.71282     10.00172        -0.069761     -0.081039     -0.011203
     -0.00416      2.84804      9.99579        -0.015600     -0.052987     -0.005526
      2.46855      2.84552      9.98311        -0.070978      0.001125     -0.035188
      4.94129      2.84804     10.00000        -0.131992     -0.048590     -0.042444
      7.40567      2.85002     10.00218        -0.072989     -0.075761     -0.004697
     -1.23613      4.98821      9.99992        -0.059239     -0.076768     -0.010432
      1.23001      4.99075      9.98367         0.066454     -0.093342      0.017700
      3.70710      4.99075      9.98316        -0.207585     -0.092648      0.026666
      6.17324      4.98821      9.99957        -0.085972     -0.078344     -0.002466
     -2.46856      7.12612     10.00001        -0.070281     -0.071942      0.006109
     -0.00086      7.12775      9.99979        -0.052638     -0.087231     -0.006559
      2.46856      7.13092      9.99571        -0.071222     -0.205526     -0.019292
      4.93797      7.12775     10.00000        -0.088646     -0.088818     -0.001302
     -0.00086      1.42358     10.00000         0.088693      0.088756      0.002032
      2.46857      1.42042      9.99551         0.069802      0.205884     -0.019892
      4.93797      1.42359     10.00077         0.055306      0.085072      0.000717
      7.40568      1.42522     10.00062         0.069635      0.071754      0.014703
     -1.23613      3.56313     10.00041         0.086002      0.078534     -0.010121
      1.23001      3.56059      9.98340         0.206144      0.092644      0.013115
      3.70709      3.56061      9.98431        -0.065418      0.092304      0.028178
      6.17324      3.56314     10.00128         0.064645      0.075615     -0.000021
     -2.46856      5.70132     10.00000         0.072196      0.074562      0.020147
     -0.00418      5.70330      9.99585         0.127643      0.050653     -0.004214
      2.46857      5.70582      9.98347         0.070407     -0.000395     -0.048461
      4.94129      5.70329      9.99547         0.015638      0.056867     -0.004178
     -3.70247      7.83851     10.00160         0.068775      0.081168     -0.011440
     -1.23465      7.83851     10.00000         0.069181      0.080052      0.015653
      1.23329      7.84029      9.99981         0.077507      0.055804     -0.011946
      3.70383      7.84029     10.00000         0.066126      0.056882     -0.000974
      2.46856      4.27567     15.22323        -0.000336     -0.000055     -0.073703
      2.46856      4.27567     12.98133        -0.063055     -0.000086      0.133063
      1.70455      4.27596     12.36902         0.040327     -0.000169      0.035812
      3.23120      4.27500     12.37007         0.022189     -0.000005     -0.013697
 -----------------------------------------------------------------------------------
    total drift:                                0.008480      0.001906     -0.125168


--------------------------------------------------------------------------------------------------------



  FREE ENERGIE OF THE ION-ELECTRON SYSTEM (eV)
  ---------------------------------------------------
  free  energy   TOTEN  =      -310.17697691 eV

  energy  without entropy=     -310.17320809  energy(sigma->0) =     -310.17509250
 


--------------------------------------------------------------------------------------------------------


    POTLOK:  cpu time    0.1681: real time    0.1685


--------------------------------------------------------------------------------------------------------


 writing wavefunctions
     LOOP+:  cpu time 1557.0914: real time 1563.4312
    4ORBIT:  cpu time    0.0000: real time    0.0000

 total amount of memory used by VASP MPI-rank0   558630. kBytes
=======================================================================

   base      :      30000. kBytes
   nonlr-proj:       3592. kBytes
   fftplans  :       4693. kBytes
   grid      :      35926. kBytes
   one-center:        221. kBytes
   wavefun   :     484198. kBytes
 
  
  
 General timing and accounting informations for this job:
 ========================================================
  
                  Total CPU time used (sec):     1604.974
                            User time (sec):     1597.843
                          System time (sec):        7.131
                         Elapsed time (sec):     1612.014
  
                   Maximum memory used (kb):      872192.
                   Average memory used (kb):           0.
  
                          Minor page faults:       469084
                          Major page faults:           15
                 Voluntary context switches:        18767
