LAMMPS data file via write_data, version 15 May 2015, timestep = 2000000

5414 atoms
10 atom types
6092 bonds
8 bond types
10081 angles
11 angle types
19044 dihedrals
13 dihedral types

0.0000000000000000e+00 6.3000000000000000e+01 xlo xhi
0.0000000000000000e+00 1.1154400000000000e+02 ylo yhi
0.0000000000000000e+00 6.7999999999999998e+00 zlo zhi

Masses

1 12.011
2 12.011
3 15.9994
4 12.011
5 15.9994
6 1.0008
7 1.0008
8 15.9994
9 39.098
10 35.45

Pair Coeffs # lj/cut/coul/long

1 0.07 3.55
2 0.066 3.5
3 0.14 2.9
4 0.07 3.55
5 0.17 3.07
6 0 0
7 0 0
8 0.15535 3.166
9 0.126934 2.9988
10 0.64367 4.1141

Bond Coeffs # harmonic

1 469 1.4
2 317 1.51
3 469 1.42
4 320 1.41
5 450 1.364
6 553 0.945
7 268 1.529
8 450 1

Angle Coeffs # harmonic

1 63 120
2 60 109.5
3 70 120
4 50 109.5
5 63 114
6 35 113
7 70 120
8 63 120
9 63 120
10 40 109.5
11 55 109.47

Dihedral Coeffs # opls

1 0 7.25 0 0
2 0.65 0 3 0
3 1.3 -0.05 0.2 0
4 0 7.25 0 0
5 0 7.25 0 0
6 0 1.682 0 0
7 0 7.25 0 0
8 0 7.25 0 0
9 0 0 0 0
10 0 7.25 0 0
11 0 7.25 0 0
12 0 7.25 0 0
13 0 0 0 0

Atoms # full

4 1 1 0.0000000000000000e+00 2.7990792830115874e+00 1.2120322753374571e+00 3.4034445945141920e+00 0 0 0
5 1 1 0.0000000000000000e+00 4.1992175920564803e+00 1.2120037558160381e+00 3.4056735205558701e+00 0 0 0
76 1 4 1.4999999999999999e-01 6.9471723898837989e-01 2.4171129777678391e+00 3.6628996582395805e+00 0 0 0
77 1 5 -5.8499999999999996e-01 6.7903543170235958e-01 2.3509943777126794e+00 5.0238844484419101e+00 0 0 0
79 1 1 0.0000000000000000e+00 2.0948369998176735e+00 2.4236407500844108e+00 3.4106556289345691e+00 0 0 0
80 1 1 0.0000000000000000e+00 2.7961563280905208e+00 3.6363367254073085e+00 3.3793681717333248e+00 0 0 0
81 1 1 0.0000000000000000e+00 4.1980821796289982e+00 3.6361098040629991e+00 3.3798467099891019e+00 0 0 0
82 1 1 0.0000000000000000e+00 4.8989273389758132e+00 2.4238920581765799e+00 3.4064671584646753e+00 0 0 0
83 1 1 0.0000000000000000e+00 6.2994376953424354e+00 2.4248858504072945e+00 3.3872169075335923e+00 0 0 0
78 1 6 4.3500000000000000e-01 7.5987640269716084e-01 3.2151240794712019e+00 5.4427543590406646e+00 0 0 0
144 1 1 0.0000000000000000e+00 6.9669687737108199e-01 4.8490666419067256e+00 3.3822716703110398e+00 0 0 0
145 1 1 0.0000000000000000e+00 2.0970602266783658e+00 4.8496834097534203e+00 3.3999595359567802e+00 0 0 0
146 1 1 0.0000000000000000e+00 2.7979814487461332e+00 6.0617914778812434e+00 3.3891728173255080e+00 0 0 0
147 1 1 0.0000000000000000e+00 4.1985784865865234e+00 6.0614128150453599e+00 3.3973726923998480e+00 0 0 0
148 1 1 0.0000000000000000e+00 4.8994902065731054e+00 4.8486037837153129e+00 3.4098787536011717e+00 0 0 0
149 1 4 1.4999999999999999e-01 6.2963799219095105e+00 4.8509637784686452e+00 3.6749057155411387e+00 0 0 0
150 1 5 -5.8499999999999996e-01 6.2835259327957083e+00 4.8605583636280967e+00 5.0360680016673536e+00 0 0 0
151 1 6 4.3500000000000000e-01 5.9789497856906353e+00 4.0267150452115912e+00 5.4097783420517036e+00 0 0 0
84 1 1 0.0000000000000000e+00 6.9953991537722633e+00 3.6397135490939521e+00 3.4138139554144233e+00 0 0 0
152 1 1 0.0000000000000000e+00 6.9965130355230380e+00 6.0604910320737835e+00 3.4171278234549844e+00 0 0 0
1 1 1 0.0000000000000000e+00 8.0702192126395715e-04 1.2106615429137297e+00 3.3823349066965096e+00 0 0 0
75 1 1 0.0000000000000000e+00 5.5381874021465745e-04 3.6335589781209121e+00 3.3991839787068754e+00 0 0 0
4797 496 8 -8.4719999999999995e-01 5.6146493183408728e+00 2.9077484320317808e+00 8.3638716905127600e-02 1 0 0
4795 496 7 4.2359999999999998e-01 5.5823325515414206e+00 1.9213953486447177e+00 6.7221972949091766e+00 1 0 -1
5307 666 8 -8.4719999999999995e-01 3.4040191731424767e+00 4.4956762567845709e+00 2.5151230575349626e-01 1 0 0
5305 666 7 4.2359999999999998e-01 3.5362489932038805e+00 5.4712127926606433e+00 7.5888158129189115e-02 1 0 0
5306 666 7 4.2359999999999998e-01 4.2910605353087501e+00 4.0339878449487152e+00 2.5272295116055093e-01 1 0 0
3958 217 7 4.2359999999999998e-01 3.8477916967887249e+00 1.0963105973221350e+00 3.1578574370052420e-01 1 1 0
3960 217 8 -8.4719999999999995e-01 2.8773402313297205e+00 1.3373714619917727e+00 3.2648042682508949e-01 1 1 0
3968 220 7 4.2359999999999998e-01 1.7311146251911234e+00 4.4391156998997419e+00 6.7075363953826814e+00 0 1 -1
3959 217 7 4.2359999999999998e-01 2.7811800856712865e+00 2.3327251038344818e+00 3.3145881240819791e-01 1 1 0
5141 611 7 4.2359999999999998e-01 6.8974292167934772e+00 6.2927148660025445e+00 6.2753517750716048e+00 0 0 -1
3969 220 8 -8.4719999999999995e-01 7.5458933473754886e-01 4.4711428815849423e+00 6.4945277754643849e+00 0 1 -1
3467 53 7 4.2359999999999998e-01 8.9122770539670071e-01 6.3393547845601450e+00 5.9833697990906840e+00 1 0 -1
5413 702 9 1.0000000000000000e+00 7.1708837178892637e-01 2.0170838777809344e-01 6.7026066639648212e+00 0 0 -1
4796 496 7 4.2359999999999998e-01 6.5618521558964016e+00 3.1896281585473130e+00 2.3644795476438105e-01 1 0 0
4650 447 8 -8.4719999999999995e-01 4.0240564053979639e+00 6.9584100152500410e+00 6.6249944157013312e+00 0 1 -1
4649 447 7 4.2359999999999998e-01 4.9953828052252849e+00 6.9557268827199188e+00 6.2729416472710645e-02 0 1 0
3888 193 8 -8.4719999999999995e-01 5.4292001534041745e+00 3.8509966287439440e-01 6.5493149423894748e+00 -1 1 -1
3967 220 7 4.2359999999999998e-01 2.7213481288086888e-01 4.9676009661965805e+00 4.1616972084772336e-01 0 1 0
4941 544 8 -8.4719999999999995e-01 1.0390446186031847e+01 1.9205153555437051e+00 6.3381116685974384e+00 0 1 -1
8 1 1 0.0000000000000000e+00 7.0018331828307829e+00 1.2122399908198298e+00 3.3403792309217009e+00 0 0 0
9 1 4 1.4999999999999999e-01 8.4015543212181800e+00 1.2090430638215757e+00 3.0833830824522264e+00 0 0 0
10 1 5 -5.8499999999999996e-01 8.4065448198185599e+00 1.1915397439924180e+00 1.7186224823582252e+00 0 0 0
11 1 6 4.3500000000000000e-01 8.2345661283982654e+00 2.0673466761752559e+00 1.3442226489686488e+00 0 0 0
14 1 1 0.0000000000000000e+00 1.1199058473415253e+01 1.2117983664202883e+00 3.4019545022025306e+00 0 0 0
15 1 1 0.0000000000000000e+00 1.2599400685903040e+01 1.2112407973750152e+00 3.4155196195116870e+00 0 0 0
85 1 1 0.0000000000000000e+00 8.3964722958301543e+00 3.6362844039489683e+00 3.4035558246845965e+00 0 0 0
86 1 1 0.0000000000000000e+00 9.0960866100631410e+00 2.4223745331069457e+00 3.3492099719698856e+00 0 0 0
87 1 1 0.0000000000000000e+00 1.0497038391909520e+01 2.4237265428420756e+00 3.3975593361130816e+00 0 0 0
88 1 1 0.0000000000000000e+00 1.1198021828477533e+01 3.6367284039191365e+00 3.4287289977715378e+00 0 0 0
89 1 1 0.0000000000000000e+00 1.2598932930848417e+01 3.6375911194080413e+00 3.4321499422630017e+00 0 0 0
90 1 1 0.0000000000000000e+00 1.3299677408153945e+01 2.4242936836630484e+00 3.4177034910056507e+00 0 0 0
153 1 1 0.0000000000000000e+00 8.3972776279969477e+00 6.0612861072891659e+00 3.3939839169350168e+00 0 0 0
154 1 1 0.0000000000000000e+00 9.0980336307512033e+00 4.8488567023011582e+00 3.4302884625591719e+00 0 0 0
155 1 1 0.0000000000000000e+00 1.0498921877192176e+01 4.8502035094394342e+00 3.4291290880413094e+00 0 0 0
156 1 1 0.0000000000000000e+00 1.1199760659162063e+01 6.0634299653115544e+00 3.4045572985905088e+00 0 0 0
157 1 1 0.0000000000000000e+00 1.2601229275225117e+01 6.0658578916712651e+00 3.3815234211556700e+00 0 0 0
158 1 1 0.0000000000000000e+00 1.3299429171698804e+01 4.8513736847882294e+00 3.4207622763125540e+00 0 0 0
5226 639 8 -8.4719999999999995e-01 8.3107435397157499e+00 3.6531149167358135e+00 3.2464769970375951e-01 1 1 0
5224 639 7 4.2359999999999998e-01 8.6106204864115661e+00 4.6046182367042965e+00 3.9331796810426461e-01 1 1 0
5225 639 7 4.2359999999999998e-01 8.9543784837235645e+00 3.1410125128916335e+00 6.5558891255790659e+00 1 1 -1
4926 539 8 -8.4719999999999995e-01 1.2172688910753916e+01 4.0441396760907669e+00 2.0257275189030036e-01 1 1 0
4924 539 7 4.2359999999999998e-01 1.1493151512316434e+01 3.6830105340503074e+00 6.3639688112755399e+00 1 1 -1
4925 539 7 4.2359999999999998e-01 1.2022258998081107e+01 5.0244880853169462e+00 3.3019980435490920e-01 1 1 0
4939 544 7 4.2359999999999998e-01 9.7572887913237878e+00 1.1486547850270843e+00 6.3959345046285030e+00 0 1 -1
4940 544 7 4.2359999999999998e-01 1.1235313434513666e+01 1.6956662901024198e+00 2.3542084455590716e-02 0 1 0
3709 134 7 4.2359999999999998e-01 1.1940440941132294e+01 6.8361402343468258e+00 9.0432910900141428e-01 1 0 0
3711 134 8 -8.4719999999999995e-01 1.1198681122181954e+01 6.5567976482435819e+00 2.9460706611524484e-01 1 0 0
3647 113 7 4.2359999999999998e-01 1.4037635849326520e+01 3.1975267785495931e+00 2.1177878862818547e-01 1 0 0
3646 113 7 4.2359999999999998e-01 1.5644204856068903e+01 3.1028315195753922e+00 6.7350185354906884e+00 1 0 -1
3648 113 8 -8.4719999999999995e-01 1.4793361953003476e+01 2.5805352745324903e+00 6.7922334913246258e+00 1 0 -1
5003 565 7 4.2359999999999998e-01 1.4678410681173034e+01 8.1330450903136542e-01 1.4914913674171434e-01 -1 1 0
3862 185 7 4.2359999999999998e-01 2.0231335813377960e+01 1.1825656067864028e+00 2.0275039297158687e-01 0 1 0
5309 667 7 4.2359999999999998e-01 1.9478758843066590e+01 5.8159979273785707e+00 6.4280284669915204e+00 0 1 -1
4579 424 7 4.2359999999999998e-01 1.7379491174187656e+01 2.7820580298640474e+00 7.8367318708440492e-01 0 0 0
23 1 1 0.0000000000000000e+00 1.8899219897598051e+01 2.8381017812403545e-03 3.4170078746430734e+00 0 0 0
18 1 1 0.0000000000000000e+00 1.5401881656764347e+01 1.2122153159395348e+00 3.3578310525694084e+00 0 0 0
19 1 4 1.4999999999999999e-01 1.6802828692771065e+01 1.2150068142042070e+00 3.1073790510683543e+00 0 0 0
20 1 5 -5.8499999999999996e-01 1.6837021307031840e+01 1.2155235278086893e+00 1.7402936302398819e+00 0 0 0
21 1 6 4.3500000000000000e-01 1.6043811322054633e+01 8.5213177783193739e-01 1.3489233837657519e+00 0 0 0
24 1 1 0.0000000000000000e+00 1.9601127425873248e+01 1.2138431789794892e+00 3.4099146647174257e+00 0 0 0
91 1 1 0.0000000000000000e+00 1.4700568902488438e+01 2.4243461341817683e+00 3.4046336387607163e+00 0 0 0
92 1 1 0.0000000000000000e+00 1.5399537713071432e+01 3.6373718539133875e+00 3.4093975527105416e+00 0 0 0
93 1 1 0.0000000000000000e+00 1.6799418132958525e+01 3.6362668076408649e+00 3.4351811173858242e+00 0 0 0
94 1 1 0.0000000000000000e+00 1.7499261433330616e+01 2.4227167108047527e+00 3.3944359819664784e+00 0 0 0
95 1 1 0.0000000000000000e+00 1.8900060594352912e+01 2.4250493404668343e+00 3.4367516126340387e+00 0 0 0
96 1 1 0.0000000000000000e+00 1.9601390088783997e+01 3.6380925434382005e+00 3.4507499377490363e+00 0 0 0
159 1 1 0.0000000000000000e+00 1.4699544025583306e+01 4.8501001166285604e+00 3.4174911498294045e+00 0 0 0
160 1 1 0.0000000000000000e+00 1.5399331115247943e+01 6.0626866994930264e+00 3.4270703186817495e+00 0 0 0
161 1 1 0.0000000000000000e+00 1.6799648447824676e+01 6.0635845801552808e+00 3.4188823901880374e+00 0 0 0
162 1 1 0.0000000000000000e+00 1.7499545316408035e+01 4.8500080065433844e+00 3.4469647682720330e+00 0 0 0
163 1 1 0.0000000000000000e+00 1.8899683990449454e+01 4.8497516254495601e+00 3.4277969166903128e+00 0 0 0
164 1 1 0.0000000000000000e+00 1.9598965302003450e+01 6.0620665737518573e+00 3.4491277765897959e+00 0 0 0
236 1 6 4.3500000000000000e-01 1.6687450404060755e+01 6.8285957698829245e+00 1.4450384052326033e+00 0 0 0
22 1 1 0.0000000000000000e+00 1.7498496391470642e+01 4.4155575864718941e-03 3.3837218199805905e+00 0 0 0
230 1 6 4.3500000000000000e-01 1.4134411039307807e+01 6.9051548199875850e+00 1.4146473980531509e+00 0 0 0
17 1 1 0.0000000000000000e+00 1.4700590882237220e+01 1.1166014257173548e-05 3.4080407679147791e+00 0 0 0
4581 424 8 -8.4719999999999995e-01 1.7178162562697313e+01 3.7201741620605215e+00 5.0188437791380514e-01 0 0 0
4580 424 7 4.2359999999999998e-01 1.8032211663130926e+01 4.2335512864568416e+00 4.1795496393383824e-01 0 0 0
5331 674 8 -8.4719999999999995e-01 1.5528403845228086e+01 5.9137648528867102e+00 4.5664224399299030e-01 -1 1 0
5330 674 7 4.2359999999999998e-01 1.5983906721097416e+01 5.0443139964945338e+00 2.6539854416113762e-01 -1 1 0
5310 667 8 -8.4719999999999995e-01 1.9367754947605142e+01 4.9907909999685005e+00 1.8184402931044533e-01 0 1 0
5308 667 7 4.2359999999999998e-01 2.0031673597712938e+01 4.9994042167776049e+00 9.2959925552623024e-01 0 1 0
3863 185 7 4.2359999999999998e-01 1.9263237512631047e+01 4.2648568920334368e-01 1.2787412164754939e+00 0 1 0
5329 674 7 4.2359999999999998e-01 1.5373479383961673e+01 6.4045527815722565e+00 6.3992474280983949e+00 -1 1 -1
3864 185 8 -8.4719999999999995e-01 1.9624903555682113e+01 4.0058524072358814e-01 3.4679324945849010e-01 0 1 0
4168 287 7 4.2359999999999998e-01 2.0554210355935727e+01 3.4906002677770571e+00 6.6084680548508050e+00 0 0 -1
5142 611 8 -8.4719999999999995e-01 6.7462526871892772e+00 7.0824423963008929e+00 6.9890617556348261e-02 0 0 0
3466 53 7 4.2359999999999998e-01 1.6635249737830557e+00 7.7650854156343678e+00 5.7897831495182999e+00 1 0 -1
4648 447 7 4.2359999999999998e-01 3.7301434082562412e+00 7.8950438501016009e+00 6.4343842365954460e+00 0 1 -1
3468 53 8 -8.4719999999999995e-01 8.8039375168012701e-01 7.3119423477603522e+00 6.2156551870984220e+00 1 0 -1
3351 14 8 -8.4719999999999995e-01 1.2371527344789746e+00 1.2009109196087811e+01 6.5343834442576396e+00 0 0 -1
216 1 1 0.0000000000000000e+00 6.9647360725267360e-01 7.2746715591713498e+00 3.3804842748716744e+00 0 0 0
217 1 1 0.0000000000000000e+00 2.0976455407615684e+00 7.2746284816074871e+00 3.3881243521370954e+00 0 0 0
218 1 1 0.0000000000000000e+00 2.7970748851404803e+00 8.4879752072118322e+00 3.4072490863841152e+00 0 0 0
219 1 1 0.0000000000000000e+00 4.1978917155313766e+00 8.4878056648519173e+00 3.4196720665076263e+00 0 0 0
220 1 1 0.0000000000000000e+00 4.8977534245789869e+00 7.2746030462270408e+00 3.4167040376668414e+00 0 0 0
221 1 1 0.0000000000000000e+00 6.2975927340628433e+00 7.2738001793991494e+00 3.3937080330551508e+00 0 0 0
286 1 4 1.4999999999999999e-01 6.9896212010178904e-01 9.6927566380559167e+00 3.0944655472799711e+00 0 0 0
287 1 5 -5.8499999999999996e-01 6.8065807512003984e-01 9.6366271458183785e+00 1.7378431141124346e+00 0 0 0
289 1 1 0.0000000000000000e+00 2.0967000115598697e+00 9.7008704192495667e+00 3.3594905946040332e+00 0 0 0
290 1 1 0.0000000000000000e+00 2.7974519764226518e+00 1.0913997697961227e+01 3.4035509182229271e+00 0 0 0
291 1 1 0.0000000000000000e+00 4.1982859796852230e+00 1.0912756629589685e+01 3.4162307325790708e+00 0 0 0
292 1 1 0.0000000000000000e+00 4.8988346810322714e+00 9.7001585730911124e+00 3.4003575132768660e+00 0 0 0
293 1 1 0.0000000000000000e+00 6.2999159842907071e+00 9.7000619913558559e+00 3.3907583608147385e+00 0 0 0
358 1 1 0.0000000000000000e+00 6.9993321380130780e-01 1.2125507959545100e+01 3.3817324053537083e+00 0 0 0
359 1 1 0.0000000000000000e+00 2.1007525262647055e+00 1.2129048289402279e+01 3.4274500766695732e+00 0 0 0
360 1 4 1.4999999999999999e-01 2.8076414237199567e+00 1.3339519448172219e+01 3.6763741715540186e+00 0 0 0
361 1 5 -5.8499999999999996e-01 2.8808497846630527e+00 1.3366450442966928e+01 5.0323913131167091e+00 0 0 0
362 1 6 4.3500000000000000e-01 2.2475850896839069e+00 1.2792513681083333e+01 5.4705790928739964e+00 0 0 0
363 1 1 0.0000000000000000e+00 4.1987660248426701e+00 1.3339004962392936e+01 3.3938460215435979e+00 0 0 0
364 1 1 0.0000000000000000e+00 4.8987032390533090e+00 1.2125185281759336e+01 3.3796176823336399e+00 0 0 0
365 1 1 0.0000000000000000e+00 6.3000615355711584e+00 1.2124632226600101e+01 3.3840415980127050e+00 0 0 0
222 1 1 0.0000000000000000e+00 6.9981058009143329e+00 8.4865997441898600e+00 3.3898874656331408e+00 0 0 0
366 1 1 0.0000000000000000e+00 6.9988843997286168e+00 1.3337820513282511e+01 3.4020432847197775e+00 0 0 0
285 1 1 0.0000000000000000e+00 1.6126264983242059e-03 1.0910870936723034e+01 3.3245217257733413e+00 0 0 0
4638 443 8 -8.4719999999999995e-01 2.9264064387411670e+00 9.7559517617415565e+00 6.6781044559649612e+00 0 1 -1
4637 443 7 4.2359999999999998e-01 2.3953451199239932e+00 1.0385027543834138e+01 6.1104447316071528e+00 0 1 -1
4636 443 7 4.2359999999999998e-01 2.4788299542749010e+00 9.6494645875420790e+00 7.6598722136709574e-01 0 1 0
3907 200 7 4.2359999999999998e-01 6.0741597242396850e+00 9.0820068113595624e+00 6.7776049668968437e+00 1 0 -1
3909 200 8 -8.4719999999999995e-01 5.6780571053983380e+00 9.9903886769277772e+00 6.6436444182666543e+00 1 0 -1
3349 14 7 4.2359999999999998e-01 1.2493250176440203e+00 1.2822720091555148e+01 3.1566579690780894e-01 0 0 0
3908 200 7 4.2359999999999998e-01 4.6821409852559528e+00 9.9155890276500678e+00 6.5930740011961024e+00 1 0 -1
5277 656 8 -8.4719999999999995e-01 5.0320973194656391e+00 1.2528906680106338e+01 6.5700257667191977e+00 0 1 -1
5276 656 7 4.2359999999999998e-01 4.1313239745655101e+00 1.2403825728397534e+01 6.1541383072396689e+00 0 1 -1
5275 656 7 4.2359999999999998e-01 5.4053348692836449e+00 1.1638587889406640e+01 3.0846834915880778e-02 0 1 0
4267 320 7 4.2359999999999998e-01 6.4173233013065545e+00 1.3418594134707602e+01 6.6180686218394120e+00 0 0 -1
3350 14 7 4.2359999999999998e-01 3.1204915130771771e-01 1.1630127421174700e+01 6.5107995359927093e+00 0 0 -1
5140 611 7 4.2359999999999998e-01 7.5868450333229038e+00 7.6208711490589529e+00 1.2906047404697793e-01 0 0 0
4839 510 8 -8.4719999999999995e-01 8.8867518863840651e+00 8.6014223424080374e+00 3.7405196329400314e-01 1 0 0
4837 510 7 4.2359999999999998e-01 9.1252933747445919e+00 9.1343768988778979e+00 1.1858757369253916e+00 1 0 0
4838 510 7 4.2359999999999998e-01 9.4428781114934832e+00 8.9053738177917587e+00 6.4005290764961984e+00 1 0 -1
3710 134 7 4.2359999999999998e-01 1.0557817717060097e+01 7.3158254424914917e+00 1.7984172564986659e-01 1 0 0
4392 361 8 -8.4719999999999995e-01 1.1151902552225090e+01 1.0788612264213590e+01 4.1442530623593696e-02 1 0 0
4391 361 7 4.2359999999999998e-01 1.1991592567088597e+01 1.1306871232173256e+01 2.0370321634477456e-01 1 0 0
294 1 1 0.0000000000000000e+00 7.0020588916293525e+00 1.0912311705303285e+01 3.4251703436633369e+00 0 0 0
223 1 1 0.0000000000000000e+00 8.3979573220989003e+00 8.4889203684116765e+00 3.3813916476338775e+00 0 0 0
224 1 1 0.0000000000000000e+00 9.0975771508485650e+00 7.2748671884391118e+00 3.3659932651180737e+00 0 0 0
225 1 1 0.0000000000000000e+00 1.0498143061580556e+01 7.2747051630988295e+00 3.3727001938059149e+00 0 0 0
226 1 1 0.0000000000000000e+00 1.1199048485740411e+01 8.4867037212098460e+00 3.3895083367849042e+00 0 0 0
227 1 1 0.0000000000000000e+00 1.2600356191509551e+01 8.4851309757847826e+00 3.3807812040546725e+00 0 0 0
228 1 4 1.4999999999999999e-01 1.3303994339568886e+01 7.2767130572500323e+00 3.1258379441751778e+00 0 0 0
229 1 5 -5.8499999999999996e-01 1.3320206178229883e+01 7.2848640789735715e+00 1.7687359629812447e+00 0 0 0
295 1 4 1.4999999999999999e-01 8.3999793734996153e+00 1.0914650612848295e+01 3.6940489866192925e+00 0 0 0
296 1 5 -5.8499999999999996e-01 8.4302230883333671e+00 1.0917619263296059e+01 5.0592008907715753e+00 0 0 0
297 1 6 4.3500000000000000e-01 7.6578952995918250e+00 1.0499689196748424e+01 5.4760630474204470e+00 0 0 0
298 1 1 0.0000000000000000e+00 9.0972755668366574e+00 9.7028344017986932e+00 3.4297110097837931e+00 0 0 0
299 1 1 0.0000000000000000e+00 1.0498490037390692e+01 9.6999561269297399e+00 3.4169308208278282e+00 0 0 0
300 1 1 0.0000000000000000e+00 1.1199676707665553e+01 1.0911773926876725e+01 3.4332713395623049e+00 0 0 0
301 1 1 0.0000000000000000e+00 1.2600288801038172e+01 1.0911437493572194e+01 3.4424363404821920e+00 0 0 0
302 1 1 0.0000000000000000e+00 1.3300617615615316e+01 9.6979132774032948e+00 3.4300718007737827e+00 0 0 0
367 1 1 0.0000000000000000e+00 8.3990058386155759e+00 1.3337617193941679e+01 3.3921610142234746e+00 0 0 0
368 1 1 0.0000000000000000e+00 9.0983956543181161e+00 1.2123394067235694e+01 3.4230388271386536e+00 0 0 0
369 1 1 0.0000000000000000e+00 1.0498887082957996e+01 1.2123679751958994e+01 3.3984798216497571e+00 0 0 0
370 1 1 0.0000000000000000e+00 1.1198524648109379e+01 1.3336694962157567e+01 3.3741937543381275e+00 0 0 0
371 1 1 0.0000000000000000e+00 1.2598901439081178e+01 1.3336591891583666e+01 3.3877000131405555e+00 0 0 0
372 1 1 0.0000000000000000e+00 1.3299855466378350e+01 1.2124908818636730e+01 3.4212699131222228e+00 0 0 0
4390 361 7 4.2359999999999998e-01 1.0434970453151680e+01 1.1407518360832849e+01 6.5205630553472540e+00 1 0 -1
3696 129 8 -8.4719999999999995e-01 9.6164657743407744e+00 1.2989111539007633e+01 6.4293373743710527e+00 1 0 -1
3695 129 7 4.2359999999999998e-01 9.4875417935438016e+00 1.2420935272338969e+01 5.6165923878082538e+00 1 0 -1
3698 130 7 4.2359999999999998e-01 1.2635324915395564e+01 1.3183232601888335e+01 9.2308422002134835e-02 0 0 0
3699 130 8 -8.4719999999999995e-01 1.3282900719526339e+01 1.2443521340603702e+01 2.7526440256817269e-01 0 0 0
3694 129 7 4.2359999999999998e-01 8.8066167310437997e+00 1.3558706576041775e+01 6.5697157118604519e+00 1 0 -1
3922 205 7 4.2359999999999998e-01 1.3667369598346287e+01 1.0084543463877820e+01 6.7308864377331394e+00 1 0 -1
3923 205 7 4.2359999999999998e-01 1.3624649073691611e+01 8.5739100342896766e+00 5.4958521010956218e-01 1 0 0
3697 130 7 4.2359999999999998e-01 1.4019707278203805e+01 1.2782624611986549e+01 8.6017903271346008e-01 0 0 0
3924 205 8 -8.4719999999999995e-01 1.4196238978460739e+01 9.2498372117570682e+00 8.4388818964309192e-02 1 0 0
3563 85 7 4.2359999999999998e-01 1.5995899106769166e+01 1.1759343577718321e+01 6.5686169258080334e+00 1 0 -1
3564 85 8 -8.4719999999999995e-01 1.6434589401163500e+01 1.0871061551439793e+01 6.7046532459700474e+00 1 0 -1
3562 85 7 4.2359999999999998e-01 1.5743197852039563e+01 1.0149331982595147e+01 6.6717251064252920e+00 1 0 -1
3961 218 7 4.2359999999999998e-01 1.9259658803844676e+01 1.0336099601290758e+01 6.6545706004815486e+00 0 0 -1
5078 590 7 4.2359999999999998e-01 1.7537366609007755e+01 9.6092266926868461e+00 6.4631695229333737e+00 1 0 -1
5079 590 8 -8.4719999999999995e-01 1.8244521368763376e+01 8.9083755129707711e+00 6.5566565364105722e+00 1 0 -1
5077 590 7 4.2359999999999998e-01 1.8054667719469961e+01 8.3488468632523283e+00 5.6342993871436164e-01 1 0 0
3962 218 7 4.2359999999999998e-01 1.8552127903599189e+01 1.1659793264734313e+01 4.9789139865999399e-01 0 0 0
3963 218 8 -8.4719999999999995e-01 1.9379560037170545e+01 1.1307231191870486e+01 6.0791764884223498e-02 0 0 0
231 1 1 0.0000000000000000e+00 1.4699959134633868e+01 7.2745978635853854e+00 3.3867812172626168e+00 0 0 0
232 1 1 0.0000000000000000e+00 1.5400869094567017e+01 8.4862074468858939e+00 3.4277885634970846e+00 0 0 0
233 1 1 0.0000000000000000e+00 1.6801549466785051e+01 8.4843570383986009e+00 3.4031290578865989e+00 0 0 0
234 1 4 1.4999999999999999e-01 1.7498191665815696e+01 7.2709160139696349e+00 3.1474239395299430e+00 0 0 0
235 1 5 -5.8499999999999996e-01 1.7474908147749602e+01 7.2592204579241093e+00 1.7823047853487131e+00 0 0 0
237 1 1 0.0000000000000000e+00 1.8895886042612105e+01 7.2751526501292707e+00 3.4219004620708313e+00 0 0 0
238 1 1 0.0000000000000000e+00 1.9598021296035149e+01 8.4882258957707766e+00 3.4307938230824315e+00 0 0 0
303 1 1 0.0000000000000000e+00 1.4701060994577025e+01 9.6997549020274914e+00 3.4321143024277023e+00 0 0 0
304 1 1 0.0000000000000000e+00 1.5400562927469839e+01 1.0913553345162027e+01 3.4204979113700515e+00 0 0 0
305 1 1 0.0000000000000000e+00 1.6800773327592005e+01 1.0913034226823305e+01 3.4012049105861095e+00 0 0 0
306 1 1 0.0000000000000000e+00 1.7500228109555305e+01 9.6991836106612528e+00 3.4058621352548393e+00 0 0 0
307 1 1 0.0000000000000000e+00 1.8899786680738128e+01 9.7013133195191408e+00 3.3830538323597228e+00 0 0 0
308 1 1 0.0000000000000000e+00 1.9600110207397954e+01 1.0914193069856623e+01 3.4126856133954742e+00 0 0 0
373 1 1 0.0000000000000000e+00 1.4700078880915298e+01 1.2126470796158177e+01 3.3909913737486264e+00 0 0 0
374 1 4 1.4999999999999999e-01 1.5396794996175871e+01 1.3333540622180857e+01 3.1124945556372623e+00 0 0 0
375 1 5 -5.8499999999999996e-01 1.5374390373786950e+01 1.3310128413983808e+01 1.7463634914469643e+00 0 0 0
377 1 1 0.0000000000000000e+00 1.6795888785715345e+01 1.3338955645874332e+01 3.3781586888519866e+00 0 0 0
378 1 1 0.0000000000000000e+00 1.7499585118753380e+01 1.2127304606707341e+01 3.4131945820740373e+00 0 0 0
379 1 1 0.0000000000000000e+00 1.8900742246710962e+01 1.2128186563455417e+01 3.4599914447481392e+00 0 0 0
380 1 4 1.4999999999999999e-01 1.9599568100414448e+01 1.3344534570070014e+01 3.6962679876061411e+00 0 0 0
381 1 5 -5.8499999999999996e-01 1.9607275621194105e+01 1.3398992220174275e+01 5.0587004498078247e+00 0 0 0
382 1 6 4.3500000000000000e-01 1.9538112079123056e+01 1.2531715362174005e+01 5.4810246030319698e+00 0 0 0
239 1 1 0.0000000000000000e+00 2.0999335818214078e+01 8.4884248861020399e+00 3.4200323839292373e+00 0 0 0
383 1 1 0.0000000000000000e+00 2.0996532484070975e+01 1.3337711603476890e+01 3.4246646194143624e+00 0 0 0
376 1 6 4.3500000000000000e-01 1.6028857904933282e+01 1.3905987803621160e+01 1.3519302443419940e+00 0 0 0
4594 429 7 4.2359999999999998e-01 2.0079103079489165e+01 8.3230640174900774e+00 6.1461015593405488e+00 0 0 -1
4596 429 8 -8.4719999999999995e-01 2.0781537425605404e+01 7.6982318323565044e+00 6.4869402697026706e+00 0 0 -1
4823 505 7 4.2359999999999998e-01 2.0410071768889831e-01 2.0170258451153643e+01 6.3995250836345567e+00 1 0 -1
5365 686 7 4.2359999999999998e-01 4.1100501059323342e+00 1.4180769920150455e+01 6.7717017360181950e+00 0 0 -1
5367 686 8 -8.4719999999999995e-01 3.9193778029072464e+00 1.5110746576139292e+01 2.8600760986637513e-01 0 0 0
5366 686 7 4.2359999999999998e-01 4.4224986818400325e+00 1.5763665648101671e+01 6.5198215906921364e+00 0 0 -1
4666 453 7 4.2359999999999998e-01 1.0369537856041948e+00 1.5312435312044860e+01 5.9815811187450354e+00 1 0 -1
4667 453 7 4.2359999999999998e-01 2.0294357157037322e+00 1.4928093283711711e+01 4.2008316560101733e-01 1 0 0
4094 262 7 4.2359999999999998e-01 2.7557347793652389e+00 1.7768888977246299e+01 5.9610128103437221e+00 0 0 -1
4668 453 8 -8.4719999999999995e-01 1.1015988372120402e+00 1.4836293520013495e+01 5.8570303213772504e-02 1 0 0
5211 634 8 -8.4719999999999995e-01 4.4153775420342214e+00 2.0029550778978734e+01 6.6512800329004040e+00 1 1 -1
501 1 1 0.0000000000000000e+00 6.2054521985576862e-06 1.8185810518532964e+01 3.3909576629295870e+00 0 0 0
577 1 1 0.0000000000000000e+00 4.4022110728358021e-04 2.0612383975985189e+01 3.3768365205226996e+00 0 0 0
438 1 1 0.0000000000000000e+00 6.9971809689249742e-01 1.4550230195374576e+01 3.3936862287139391e+00 0 0 0
439 1 1 0.0000000000000000e+00 2.1004549182478578e+00 1.4548698159206547e+01 3.4345956289622666e+00 0 0 0
440 1 1 0.0000000000000000e+00 2.7971316809033064e+00 1.5762513248021753e+01 3.3983457866267037e+00 0 0 0
441 1 1 0.0000000000000000e+00 4.1981112230020035e+00 1.5764026126363149e+01 3.4185773058662274e+00 0 0 0
442 1 1 0.0000000000000000e+00 4.8985010645777471e+00 1.4551720022457170e+01 3.3833613450703774e+00 0 0 0
443 1 1 0.0000000000000000e+00 6.2988225788001895e+00 1.4550847275535325e+01 3.4006551037944490e+00 0 0 0
502 1 4 1.4999999999999999e-01 6.9207714320944913e-01 1.6979544340615188e+01 3.6797117026717356e+00 0 0 0
503 1 5 -5.8499999999999996e-01 6.5341641934601846e-01 1.7005074191549006e+01 5.0484427992813687e+00 0 0 0
505 1 1 0.0000000000000000e+00 2.0941366484889383e+00 1.6973860997991405e+01 3.4321695737301678e+00 0 0 0
506 1 1 0.0000000000000000e+00 2.7987807128922872e+00 1.8184068043227789e+01 3.4010844718213780e+00 0 0 0
507 1 1 0.0000000000000000e+00 4.2001493695442695e+00 1.8182588795482392e+01 3.4370254255294670e+00 0 0 0
508 1 4 1.4999999999999999e-01 4.8989183455993714e+00 1.6969082597048629e+01 3.6906094833508529e+00 0 0 0
509 1 5 -5.8499999999999996e-01 4.8772543951014011e+00 1.6933763869993040e+01 5.0538662072073404e+00 0 0 0
510 1 6 4.3500000000000000e-01 5.7400979237838916e+00 1.7095004271567930e+01 5.4558164646555252e+00 0 0 0
511 1 1 0.0000000000000000e+00 6.2958801396080970e+00 1.6975161698094997e+01 3.4229929669712220e+00 0 0 0
578 1 1 0.0000000000000000e+00 7.0066144029175281e-01 1.9398628004338022e+01 3.3733359052651983e+00 0 0 0
579 1 1 0.0000000000000000e+00 2.1003392184443483e+00 1.9398189097890665e+01 3.4109088596138983e+00 0 0 0
580 1 1 0.0000000000000000e+00 2.7990202185665565e+00 2.0611232876219386e+01 3.3873086888585506e+00 0 0 0
581 1 1 0.0000000000000000e+00 4.1995710193223017e+00 2.0610701170709362e+01 3.3474661384491964e+00 0 0 0
582 1 1 0.0000000000000000e+00 4.8992225028826653e+00 1.9397731748486041e+01 3.4126797847060888e+00 0 0 0
583 1 1 0.0000000000000000e+00 6.2995016388957170e+00 1.9400162689101908e+01 3.4390916641165403e+00 0 0 0
444 1 1 0.0000000000000000e+00 6.9980235959021346e+00 1.5763996026537615e+01 3.3868193697357101e+00 0 0 0
512 1 1 0.0000000000000000e+00 6.9980698975635987e+00 1.8187191810481490e+01 3.4206002838517486e+00 0 0 0
584 1 1 0.0000000000000000e+00 6.9989743692923945e+00 2.0613691472505757e+01 3.4242462575431607e+00 0 0 0
437 1 1 0.0000000000000000e+00 2.6994358531327715e-03 1.5766302167448590e+01 3.3960648540337095e+00 0 0 0
504 1 6 4.3500000000000000e-01 1.2279626923371643e-01 1.7733809249192507e+01 5.4105890766691829e+00 0 0 0
5210 634 7 4.2359999999999998e-01 3.7626433306001923e+00 1.9280615701833714e+01 6.7654543893107242e+00 1 1 -1
5209 634 7 4.2359999999999998e-01 4.6416768231452634e+00 2.0413818921372350e+01 7.4633735181833116e-01 1 1 0
4093 262 7 4.2359999999999998e-01 3.0013949717671933e+00 1.7041770460377371e+01 6.0239283150486822e-01 0 0 0
4095 262 8 -8.4719999999999995e-01 2.8460891821800578e+00 1.7917751859986979e+01 1.4573425149452895e-01 0 0 0
4822 505 7 4.2359999999999998e-01 1.1207631542306822e+00 1.9086988529614615e+01 4.0753682907727784e-01 1 0 0
4824 505 8 -8.4719999999999995e-01 2.4281271794794948e-01 1.9235374159948783e+01 6.7523608311608543e+00 1 0 -1
4085 259 7 4.2359999999999998e-01 6.4405338853959240e+00 2.0249690843970978e+01 1.4038678772694826e-01 0 0 0
4268 320 7 4.2359999999999998e-01 6.7021651963748781e+00 1.5026508504660779e+01 6.6078922678684711e+00 0 0 -1