  33  33   0   0
  0.5117450E+02  0.9874235E-09  0.9874235E-09  0.2000000E-08  0.5000000E-15
  1.000000000000000E-004
  CAR 
 Graphene                                
      9.17844544    -29.89459367  301     -1.30469679      1.00000000
    -29.895  0.0000E+00  0.0000E+00  0.0000E+00  0.0000E+00
    -29.764  0.0000E+00  0.0000E+00  0.0000E+00  0.0000E+00
    -29.634  0.0000E+00  0.0000E+00  0.0000E+00  0.0000E+00
    -29.504  0.0000E+00  0.0000E+00  0.0000E+00  0.0000E+00
    -29.374  0.0000E+00  0.0000E+00  0.0000E+00  0.0000E+00
    -29.243  0.0000E+00  0.0000E+00  0.0000E+00  0.0000E+00
    -29.113  0.0000E+00  0.0000E+00  0.0000E+00  0.0000E+00
    -28.983  0.0000E+00  0.0000E+00  0.0000E+00  0.0000E+00
    -28.853  0.0000E+00  0.0000E+00  0.0000E+00  0.0000E+00
    -28.722  0.0000E+00  0.0000E+00  0.0000E+00  0.0000E+00
    -28.592  0.0000E+00  0.0000E+00  0.0000E+00  0.0000E+00
    -28.462  0.0000E+00  0.0000E+00  0.0000E+00  0.0000E+00
    -28.332  0.0000E+00  0.0000E+00  0.0000E+00  0.0000E+00
    -28.201  0.8350E-08  0.2568E-04  0.1088E-08  0.3345E-05
    -28.071  0.1996E+02  0.2293E+02  0.2600E+01  0.2987E+01
    -27.941  0.3075E+01  0.1025E+00  0.3000E+01  0.3000E+01
    -27.811  0.0000E+00  0.0000E+00  0.3000E+01  0.3000E+01
    -27.680  0.0000E+00  0.0000E+00  0.3000E+01  0.3000E+01
    -27.550  0.0000E+00  0.0000E+00  0.3000E+01  0.3000E+01
    -27.420  0.0000E+00  0.0000E+00  0.3000E+01  0.3000E+01
    -27.290  0.0000E+00  0.0000E+00  0.3000E+01  0.3000E+01
    -27.159  0.0000E+00  0.0000E+00  0.3000E+01  0.3000E+01
    -27.029  0.0000E+00  0.0000E+00  0.3000E+01  0.3000E+01
    -26.899  0.0000E+00  0.0000E+00  0.3000E+01  0.3000E+01
    -26.769  0.0000E+00  0.0000E+00  0.3000E+01  0.3000E+01
    -26.639  0.0000E+00  0.0000E+00  0.3000E+01  0.3000E+01
    -26.508  0.0000E+00  0.0000E+00  0.3000E+01  0.3000E+01
    -26.378  0.0000E+00  0.0000E+00  0.3000E+01  0.3000E+01
    -26.248  0.0000E+00  0.0000E+00  0.3000E+01  0.3000E+01
    -26.118  0.0000E+00  0.0000E+00  0.3000E+01  0.3000E+01
    -25.987  0.0000E+00  0.0000E+00  0.3000E+01  0.3000E+01
    -25.857  0.0000E+00  0.0000E+00  0.3000E+01  0.3000E+01
    -25.727  0.0000E+00  0.0000E+00  0.3000E+01  0.3000E+01
    -25.597  0.0000E+00  0.0000E+00  0.3000E+01  0.3000E+01
    -25.466  0.0000E+00  0.0000E+00  0.3000E+01  0.3000E+01
    -25.336  0.0000E+00  0.0000E+00  0.3000E+01  0.3000E+01
    -25.206  0.0000E+00  0.0000E+00  0.3000E+01  0.3000E+01
    -25.076  0.0000E+00  0.0000E+00  0.3000E+01  0.3000E+01
    -24.945  0.0000E+00  0.0000E+00  0.3000E+01  0.3000E+01
    -24.815  0.0000E+00  0.0000E+00  0.3000E+01  0.3000E+01
    -24.685  0.0000E+00  0.0000E+00  0.3000E+01  0.3000E+01
    -24.555  0.0000E+00  0.0000E+00  0.3000E+01  0.3000E+01
    -24.424  0.0000E+00  0.0000E+00  0.3000E+01  0.3000E+01
    -24.294  0.0000E+00  0.0000E+00  0.3000E+01  0.3000E+01
    -24.164  0.0000E+00  0.0000E+00  0.3000E+01  0.3000E+01
    -24.034  0.0000E+00  0.0000E+00  0.3000E+01  0.3000E+01
    -23.903  0.0000E+00  0.0000E+00  0.3000E+01  0.3000E+01
    -23.773  0.0000E+00  0.0000E+00  0.3000E+01  0.3000E+01
    -23.643  0.0000E+00  0.0000E+00  0.3000E+01  0.3000E+01
    -23.513  0.0000E+00  0.0000E+00  0.3000E+01  0.3000E+01
    -23.382  0.0000E+00  0.0000E+00  0.3000E+01  0.3000E+01
    -23.252  0.0000E+00  0.0000E+00  0.3000E+01  0.3000E+01
    -23.122  0.0000E+00  0.0000E+00  0.3000E+01  0.3000E+01
    -22.992  0.0000E+00  0.0000E+00  0.3000E+01  0.3000E+01
    -22.861  0.0000E+00  0.0000E+00  0.3000E+01  0.3000E+01
    -22.731  0.0000E+00  0.0000E+00  0.3000E+01  0.3000E+01
    -22.601  0.0000E+00  0.0000E+00  0.3000E+01  0.3000E+01
    -22.471  0.0000E+00  0.0000E+00  0.3000E+01  0.3000E+01
    -22.340  0.0000E+00  0.0000E+00  0.3000E+01  0.3000E+01
    -22.210  0.0000E+00  0.0000E+00  0.3000E+01  0.3000E+01
    -22.080  0.0000E+00  0.0000E+00  0.3000E+01  0.3000E+01
    -21.950  0.0000E+00  0.0000E+00  0.3000E+01  0.3000E+01
    -21.819  0.0000E+00  0.0000E+00  0.3000E+01  0.3000E+01
    -21.689  0.2106E-08  0.2686E-08  0.3000E+01  0.3000E+01
    -21.559  0.1164E+01  0.1183E+01  0.3152E+01  0.3154E+01
    -21.429  0.1976E+01  0.1966E+01  0.3409E+01  0.3410E+01
    -21.299  0.1201E+01  0.1201E+01  0.3565E+01  0.3567E+01
    -21.168  0.3743E+01  0.3750E+01  0.4053E+01  0.4055E+01
    -21.038  0.3025E+01  0.3021E+01  0.4447E+01  0.4448E+01
    -20.908  0.2483E+01  0.2489E+01  0.4770E+01  0.4773E+01
    -20.778  0.1830E+01  0.1826E+01  0.5009E+01  0.5010E+01
    -20.647  0.1916E+01  0.1904E+01  0.5258E+01  0.5258E+01
    -20.517  0.1409E+01  0.1414E+01  0.5442E+01  0.5443E+01
    -20.387  0.3190E+01  0.3206E+01  0.5857E+01  0.5860E+01
    -20.257  0.2209E+01  0.2191E+01  0.6145E+01  0.6146E+01
    -20.126  0.1970E+01  0.1979E+01  0.6402E+01  0.6403E+01
    -19.996  0.4204E+01  0.4212E+01  0.6949E+01  0.6952E+01
    -19.866  0.3399E+01  0.3391E+01  0.7392E+01  0.7393E+01
    -19.736  0.2994E+01  0.2986E+01  0.7782E+01  0.7782E+01
    -19.605  0.2320E+01  0.2328E+01  0.8084E+01  0.8086E+01
    -19.475  0.2280E+01  0.2295E+01  0.8381E+01  0.8384E+01
    -19.345  0.2100E+01  0.2082E+01  0.8655E+01  0.8656E+01
    -19.215  0.3483E+01  0.3479E+01  0.9108E+01  0.9109E+01
    -19.084  0.1061E+01  0.1060E+01  0.9246E+01  0.9247E+01
    -18.954  0.2263E+01  0.2269E+01  0.9541E+01  0.9542E+01
    -18.824  0.1504E+01  0.1504E+01  0.9737E+01  0.9738E+01
    -18.694  0.2205E+01  0.2199E+01  0.1002E+02  0.1002E+02
    -18.563  0.1759E+01  0.1768E+01  0.1025E+02  0.1025E+02
    -18.433  0.2479E+01  0.2470E+01  0.1058E+02  0.1058E+02
    -18.303  0.3108E+01  0.3134E+01  0.1098E+02  0.1098E+02
    -18.173  0.5118E+01  0.5108E+01  0.1165E+02  0.1165E+02
    -18.042  0.2564E+01  0.2559E+01  0.1198E+02  0.1198E+02
    -17.912  0.2800E+01  0.2795E+01  0.1235E+02  0.1235E+02
    -17.782  0.2822E+01  0.2821E+01  0.1271E+02  0.1271E+02
    -17.652  0.2482E+01  0.2486E+01  0.1304E+02  0.1304E+02
    -17.521  0.2875E+01  0.2878E+01  0.1341E+02  0.1341E+02
    -17.391  0.1608E+01  0.1597E+01  0.1362E+02  0.1362E+02
    -17.261  0.2716E+01  0.2724E+01  0.1397E+02  0.1398E+02
    -17.131  0.3625E+01  0.3616E+01  0.1445E+02  0.1445E+02
    -17.000  0.2452E+01  0.2457E+01  0.1477E+02  0.1477E+02
    -16.870  0.2009E+01  0.2012E+01  0.1503E+02  0.1503E+02
    -16.740  0.3553E+01  0.3549E+01  0.1549E+02  0.1549E+02
    -16.610  0.1846E+01  0.1858E+01  0.1573E+02  0.1573E+02
    -16.480  0.4318E+01  0.4314E+01  0.1629E+02  0.1630E+02
    -16.349  0.2678E+01  0.2679E+01  0.1664E+02  0.1664E+02
    -16.219  0.3779E+01  0.3775E+01  0.1713E+02  0.1714E+02
    -16.089  0.2599E+01  0.2597E+01  0.1747E+02  0.1747E+02
    -15.959  0.2286E+01  0.2289E+01  0.1777E+02  0.1777E+02
    -15.828  0.2488E+01  0.2478E+01  0.1809E+02  0.1809E+02
    -15.698  0.7477E+00  0.7494E+00  0.1819E+02  0.1819E+02
    -15.568  0.1148E+01  0.1153E+01  0.1834E+02  0.1834E+02
    -15.438  0.9810E+00  0.9793E+00  0.1847E+02  0.1847E+02
    -15.307  0.1059E+01  0.1060E+01  0.1861E+02  0.1861E+02
    -15.177  0.3665E+01  0.3670E+01  0.1908E+02  0.1909E+02
    -15.047  0.3235E+01  0.3228E+01  0.1951E+02  0.1951E+02
    -14.917  0.2036E+01  0.2044E+01  0.1977E+02  0.1977E+02
    -14.786  0.3902E+01  0.3906E+01  0.2028E+02  0.2028E+02
    -14.656  0.3943E+01  0.3946E+01  0.2079E+02  0.2080E+02
    -14.526  0.3008E+01  0.2997E+01  0.2118E+02  0.2119E+02
    -14.396  0.4324E+01  0.4318E+01  0.2175E+02  0.2175E+02
    -14.265  0.2752E+01  0.2768E+01  0.2211E+02  0.2211E+02
    -14.135  0.1804E+01  0.1784E+01  0.2234E+02  0.2234E+02
    -14.005  0.2453E+01  0.2462E+01  0.2266E+02  0.2266E+02
    -13.875  0.7595E+00  0.7554E+00  0.2276E+02  0.2276E+02
    -13.744  0.2613E+01  0.2625E+01  0.2310E+02  0.2310E+02
    -13.614  0.2687E+01  0.2677E+01  0.2345E+02  0.2345E+02
    -13.484  0.9632E+00  0.9639E+00  0.2358E+02  0.2358E+02
    -13.354  0.1664E+01  0.1661E+01  0.2379E+02  0.2379E+02
    -13.223  0.2543E+01  0.2550E+01  0.2412E+02  0.2412E+02
    -13.093  0.2389E+01  0.2379E+01  0.2443E+02  0.2443E+02
    -12.963  0.9141E+00  0.9208E+00  0.2455E+02  0.2455E+02
    -12.833  0.2788E+01  0.2781E+01  0.2492E+02  0.2492E+02
    -12.702  0.6051E+01  0.6077E+01  0.2570E+02  0.2571E+02
    -12.572  0.5209E+01  0.5198E+01  0.2638E+02  0.2639E+02
    -12.442  0.5845E+01  0.5841E+01  0.2714E+02  0.2715E+02
    -12.312  0.2040E+01  0.2035E+01  0.2741E+02  0.2741E+02
    -12.181  0.2332E+01  0.2336E+01  0.2771E+02  0.2772E+02
    -12.051  0.2328E+01  0.2324E+01  0.2802E+02  0.2802E+02
    -11.921  0.1311E+01  0.1304E+01  0.2819E+02  0.2819E+02
    -11.791  0.1768E+01  0.1780E+01  0.2842E+02  0.2842E+02
    -11.661  0.3337E+01  0.3329E+01  0.2885E+02  0.2885E+02
    -11.530  0.3220E+01  0.3218E+01  0.2927E+02  0.2927E+02
    -11.400  0.1096E+01  0.1095E+01  0.2941E+02  0.2942E+02
    -11.270  0.3051E+01  0.3055E+01  0.2981E+02  0.2981E+02
    -11.140  0.1283E+01  0.1289E+01  0.2998E+02  0.2998E+02
    -11.009  0.5098E+01  0.5087E+01  0.3064E+02  0.3064E+02
    -10.879  0.2539E+01  0.2539E+01  0.3097E+02  0.3097E+02
    -10.749  0.3788E+01  0.3793E+01  0.3147E+02  0.3147E+02
    -10.619  0.3001E+01  0.3003E+01  0.3186E+02  0.3186E+02
    -10.488  0.4891E+01  0.4881E+01  0.3249E+02  0.3250E+02
    -10.358  0.1608E+01  0.1620E+01  0.3270E+02  0.3271E+02
    -10.228  0.3987E+01  0.3975E+01  0.3322E+02  0.3322E+02
    -10.098  0.2878E+01  0.2883E+01  0.3360E+02  0.3360E+02
     -9.967  0.4208E+01  0.4209E+01  0.3415E+02  0.3415E+02
     -9.837  0.2487E+01  0.2491E+01  0.3447E+02  0.3447E+02
     -9.707  0.6703E+01  0.6726E+01  0.3534E+02  0.3535E+02
     -9.577  0.3906E+01  0.3899E+01  0.3585E+02  0.3586E+02
     -9.446  0.9322E+01  0.9397E+01  0.3707E+02  0.3708E+02
     -9.316  0.5718E+01  0.5626E+01  0.3781E+02  0.3781E+02
     -9.186  0.4755E+01  0.4777E+01  0.3843E+02  0.3843E+02
     -9.056  0.4355E+01  0.4346E+01  0.3900E+02  0.3900E+02
     -8.925  0.6770E+01  0.6788E+01  0.3988E+02  0.3988E+02
     -8.795  0.4111E+01  0.4098E+01  0.4041E+02  0.4042E+02
     -8.665  0.1097E+02  0.1099E+02  0.4184E+02  0.4185E+02
     -8.535  0.9933E+01  0.9914E+01  0.4314E+02  0.4314E+02
     -8.404  0.1191E+02  0.1196E+02  0.4469E+02  0.4470E+02
     -8.274  0.7368E+01  0.7326E+01  0.4565E+02  0.4565E+02
     -8.144  0.5888E+01  0.5901E+01  0.4641E+02  0.4642E+02
     -8.014  0.5192E+01  0.5202E+01  0.4709E+02  0.4710E+02
     -7.883  0.6644E+01  0.6629E+01  0.4796E+02  0.4796E+02
     -7.753  0.5782E+01  0.5774E+01  0.4871E+02  0.4871E+02
     -7.623  0.4849E+01  0.4838E+01  0.4934E+02  0.4934E+02
     -7.493  0.4162E+01  0.4200E+01  0.4988E+02  0.4989E+02
     -7.362  0.5035E+01  0.4994E+01  0.5054E+02  0.5054E+02
     -7.232  0.6206E+01  0.6193E+01  0.5135E+02  0.5135E+02
     -7.102  0.5562E+01  0.5607E+01  0.5207E+02  0.5208E+02
     -6.972  0.7103E+01  0.7064E+01  0.5300E+02  0.5300E+02
     -6.842  0.3071E+01  0.3087E+01  0.5340E+02  0.5340E+02
     -6.711  0.4583E+01  0.4572E+01  0.5399E+02  0.5400E+02
     -6.581  0.4190E+01  0.4191E+01  0.5454E+02  0.5454E+02
     -6.451  0.6580E+01  0.6572E+01  0.5540E+02  0.5540E+02
     -6.321  0.4237E+01  0.4225E+01  0.5595E+02  0.5595E+02
     -6.190  0.4561E+01  0.4575E+01  0.5654E+02  0.5654E+02
     -6.060  0.3319E+01  0.3371E+01  0.5697E+02  0.5698E+02
     -5.930  0.6999E+01  0.6994E+01  0.5789E+02  0.5789E+02
     -5.800  0.6519E+01  0.6505E+01  0.5873E+02  0.5874E+02
     -5.669  0.3384E+01  0.3358E+01  0.5918E+02  0.5918E+02
     -5.539  0.4938E+01  0.4937E+01  0.5982E+02  0.5982E+02
     -5.409  0.2494E+01  0.2501E+01  0.6014E+02  0.6015E+02
     -5.279  0.3972E+01  0.4009E+01  0.6066E+02  0.6067E+02
     -5.148  0.4636E+01  0.4615E+01  0.6126E+02  0.6127E+02
     -5.018  0.3482E+01  0.3476E+01  0.6172E+02  0.6172E+02
     -4.888  0.2908E+01  0.2928E+01  0.6210E+02  0.6210E+02
     -4.758  0.3869E+01  0.3859E+01  0.6260E+02  0.6261E+02
     -4.627  0.3737E+01  0.3728E+01  0.6309E+02  0.6309E+02
     -4.497  0.4543E+01  0.4574E+01  0.6368E+02  0.6369E+02
     -4.367  0.4677E+01  0.4659E+01  0.6429E+02  0.6430E+02
     -4.237  0.2707E+01  0.2690E+01  0.6464E+02  0.6465E+02
     -4.106  0.2975E+01  0.2991E+01  0.6503E+02  0.6504E+02
     -3.976  0.2165E+01  0.2143E+01  0.6531E+02  0.6531E+02
     -3.846  0.3191E+01  0.3184E+01  0.6573E+02  0.6573E+02
     -3.716  0.1660E+01  0.1638E+01  0.6594E+02  0.6594E+02
     -3.585  0.7887E+00  0.7912E+00  0.6604E+02  0.6605E+02
     -3.455  0.1050E+01  0.1082E+01  0.6618E+02  0.6619E+02
     -3.325  0.9508E+00  0.9193E+00  0.6631E+02  0.6631E+02
     -3.195  0.1065E+01  0.1074E+01  0.6644E+02  0.6645E+02
     -3.064  0.5823E+00  0.5663E+00  0.6652E+02  0.6652E+02
     -2.934  0.7660E+00  0.7663E+00  0.6662E+02  0.6662E+02
     -2.804  0.6147E+00  0.6153E+00  0.6670E+02  0.6670E+02
     -2.674  0.3858E+00  0.3950E+00  0.6675E+02  0.6675E+02
     -2.543  0.3560E+00  0.3716E+00  0.6680E+02  0.6680E+02
     -2.413  0.7947E+00  0.7689E+00  0.6690E+02  0.6690E+02
     -2.283  0.4595E+00  0.4598E+00  0.6696E+02  0.6696E+02
     -2.153  0.1657E+00  0.1885E+00  0.6698E+02  0.6698E+02
     -2.022  0.4498E+00  0.4266E+00  0.6704E+02  0.6704E+02
     -1.892  0.4604E+00  0.4605E+00  0.6710E+02  0.6710E+02
     -1.762  0.5674E+00  0.5958E+00  0.6717E+02  0.6718E+02
     -1.632  0.5589E+00  0.5397E+00  0.6725E+02  0.6725E+02
     -1.502  0.4123E+00  0.4078E+00  0.6730E+02  0.6730E+02
     -1.371  0.6132E+00  0.6095E+00  0.6738E+02  0.6738E+02
     -1.241  0.7868E+00  0.6952E+01  0.6748E+02  0.6829E+02
     -1.111  0.8657E+00  0.2396E+01  0.6760E+02  0.6860E+02
     -0.981  0.1214E+01  0.1210E+01  0.6775E+02  0.6876E+02
     -0.850  0.1240E+01  0.1268E+01  0.6792E+02  0.6892E+02
     -0.720  0.2022E+01  0.2032E+01  0.6818E+02  0.6919E+02
     -0.590  0.8019E+01  0.3725E+01  0.6922E+02  0.6967E+02
     -0.460  0.9474E+01  0.6180E+01  0.7046E+02  0.7048E+02
     -0.329  0.4176E+01  0.4082E+01  0.7100E+02  0.7101E+02
     -0.199  0.3055E+01  0.3085E+01  0.7140E+02  0.7141E+02
     -0.069  0.2874E+01  0.2847E+01  0.7177E+02  0.7178E+02
      0.061  0.1235E+01  0.1224E+01  0.7193E+02  0.7194E+02
      0.192  0.2842E+01  0.2852E+01  0.7230E+02  0.7231E+02
      0.322  0.2287E+01  0.2241E+01  0.7260E+02  0.7260E+02
      0.452  0.2353E+01  0.2409E+01  0.7291E+02  0.7292E+02
      0.582  0.2145E+01  0.6166E+01  0.7319E+02  0.7372E+02
      0.713  0.3191E+01  0.6282E+01  0.7360E+02  0.7454E+02
      0.843  0.1387E+01  0.4059E+01  0.7378E+02  0.7507E+02
      0.973  0.5501E+01  0.4952E+01  0.7450E+02  0.7571E+02
      1.103  0.5515E+01  0.8017E+01  0.7522E+02  0.7675E+02
      1.234  0.4157E+01  0.6452E+01  0.7576E+02  0.7760E+02
      1.364  0.4581E+01  0.3068E+01  0.7636E+02  0.7799E+02
      1.494  0.6936E+01  0.4901E+01  0.7726E+02  0.7863E+02
      1.624  0.8684E+01  0.1011E+02  0.7839E+02  0.7995E+02
      1.755  0.6580E+01  0.7179E+01  0.7925E+02  0.8089E+02
      1.885  0.7373E+01  0.5602E+01  0.8021E+02  0.8161E+02
      2.015  0.5284E+01  0.6169E+01  0.8090E+02  0.8242E+02
      2.145  0.6296E+01  0.1094E+02  0.8172E+02  0.8384E+02
      2.276  0.8450E+01  0.5480E+01  0.8282E+02  0.8456E+02
      2.406  0.7758E+01  0.8240E+01  0.8383E+02  0.8563E+02
      2.536  0.5182E+01  0.6575E+01  0.8450E+02  0.8649E+02
      2.666  0.8254E+01  0.1048E+02  0.8558E+02  0.8785E+02
      2.797  0.7508E+01  0.9400E+01  0.8655E+02  0.8907E+02
      2.927  0.8851E+01  0.4708E+01  0.8771E+02  0.8969E+02
      3.057  0.8450E+01  0.1268E+02  0.8881E+02  0.9134E+02
      3.187  0.8212E+01  0.9810E+01  0.8988E+02  0.9262E+02
      3.317  0.1071E+02  0.8206E+01  0.9127E+02  0.9369E+02
      3.448  0.1054E+02  0.1008E+02  0.9265E+02  0.9500E+02
      3.578  0.9728E+01  0.1133E+02  0.9391E+02  0.9648E+02
      3.708  0.9960E+01  0.1112E+02  0.9521E+02  0.9792E+02
      3.838  0.1202E+02  0.9766E+01  0.9678E+02  0.9920E+02
      3.969  0.1131E+02  0.1154E+02  0.9825E+02  0.1007E+03
      4.099  0.1070E+02  0.9517E+01  0.9964E+02  0.1019E+03
      4.229  0.7981E+01  0.8808E+01  0.1007E+03  0.1031E+03
      4.359  0.9185E+01  0.1018E+02  0.1019E+03  0.1044E+03
      4.490  0.9463E+01  0.1161E+02  0.1031E+03  0.1059E+03
      4.620  0.1237E+02  0.1225E+02  0.1047E+03  0.1075E+03
      4.750  0.1121E+02  0.1239E+02  0.1062E+03  0.1091E+03
      4.880  0.1192E+02  0.1367E+02  0.1077E+03  0.1109E+03
      5.011  0.1362E+02  0.1190E+02  0.1095E+03  0.1125E+03
      5.141  0.1302E+02  0.1518E+02  0.1112E+03  0.1144E+03
      5.271  0.1485E+02  0.1668E+02  0.1131E+03  0.1166E+03
      5.401  0.1754E+02  0.1612E+02  0.1154E+03  0.1187E+03
      5.532  0.1621E+02  0.1605E+02  0.1175E+03  0.1208E+03
      5.662  0.1619E+02  0.1633E+02  0.1196E+03  0.1229E+03
      5.792  0.1549E+02  0.1635E+02  0.1217E+03  0.1251E+03
      5.922  0.1810E+02  0.1999E+02  0.1240E+03  0.1277E+03
      6.053  0.2282E+02  0.2048E+02  0.1270E+03  0.1303E+03
      6.183  0.1829E+02  0.1931E+02  0.1294E+03  0.1328E+03
      6.313  0.2039E+02  0.1738E+02  0.1320E+03  0.1351E+03
      6.443  0.1969E+02  0.1530E+02  0.1346E+03  0.1371E+03
      6.574  0.1590E+02  0.1659E+02  0.1367E+03  0.1393E+03
      6.704  0.1527E+02  0.1326E+02  0.1387E+03  0.1410E+03
      6.834  0.1576E+02  0.1630E+02  0.1407E+03  0.1431E+03
      6.964  0.1165E+02  0.6671E+01  0.1422E+03  0.1440E+03
      7.095  0.1089E+02  0.1392E+00  0.1436E+03  0.1440E+03
      7.225  0.2608E+01  0.0000E+00  0.1440E+03  0.1440E+03
      7.355  0.1068E-01  0.0000E+00  0.1440E+03  0.1440E+03
      7.485  0.1530E+00  0.0000E+00  0.1440E+03  0.1440E+03
      7.616  0.0000E+00  0.0000E+00  0.1440E+03  0.1440E+03
      7.746  0.0000E+00  0.0000E+00  0.1440E+03  0.1440E+03
      7.876  0.0000E+00  0.0000E+00  0.1440E+03  0.1440E+03
      8.006  0.0000E+00  0.0000E+00  0.1440E+03  0.1440E+03
      8.136  0.0000E+00  0.0000E+00  0.1440E+03  0.1440E+03
      8.267  0.0000E+00  0.0000E+00  0.1440E+03  0.1440E+03
      8.397  0.0000E+00  0.0000E+00  0.1440E+03  0.1440E+03
      8.527  0.0000E+00  0.0000E+00  0.1440E+03  0.1440E+03
      8.657  0.0000E+00  0.0000E+00  0.1440E+03  0.1440E+03
      8.788  0.0000E+00  0.0000E+00  0.1440E+03  0.1440E+03
      8.918  0.0000E+00  0.0000E+00  0.1440E+03  0.1440E+03
      9.048  0.0000E+00  0.0000E+00  0.1440E+03  0.1440E+03
      9.178  0.0000E+00  0.0000E+00  0.1440E+03  0.1440E+03
