 running on   24 total cores
 distrk:  each k-point on   24 cores,    1 groups
 distr:  one band on    1 cores,   24 groups
 using from now: INCAR     
 vasp.5.3.5 31Mar14 (build May  5 2015 00:43:50) complex                        
  
 POSCAR found type information on POSCAR  C  Na
 POSCAR found :  2 types and      33 ions

 ----------------------------------------------------------------------------- 
|                                                                             |
|           W    W    AA    RRRRR   N    N  II  N    N   GGGG   !!!           |
|           W    W   A  A   R    R  NN   N  II  NN   N  G    G  !!!           |
|           W    W  A    A  R    R  N N  N  II  N N  N  G       !!!           |
|           W WW W  AAAAAA  RRRRR   N  N N  II  N  N N  G  GGG   !            |
|           WW  WW  A    A  R   R   N   NN  II  N   NN  G    G                |
|           W    W  A    A  R    R  N    N  II  N    N   GGGG   !!!           |
|                                                                             |
|      For optimal performance we recommend to set                            |
|        NCORE= 4 - approx SQRT( number of cores)                             |
|      NCORE specifies how many cores store one orbital (NPAR=cpu/NCORE).     |
|      This setting can  greatly improve the performance of VASP for DFT.     |
|      The default, NPAR=number of cores might be grossly inefficient         |
|      on modern multi-core architectures or massively parallel machines.     |
|      Do your own testing !!!!                                               |
|      Unfortunately you need to use the default for GW and RPA calculations. |
|      (for HF NCORE is supported but not extensively tested yet)             |
|                                                                             |
 ----------------------------------------------------------------------------- 

 LDA part: xc-table for Pade appr. of Perdew
 WARNING: stress and forces are not correct
 POSCAR, INCAR and KPOINTS ok, starting setup
 FFT: planning ...
 WAVECAR not read
 charge-density read from file: graphene_metal                          
 magnetization density read from file 1
 entering main loop
       N       E                     dE             d eps       ncg     rms          rms(c)
DAV:   1     0.787309233690E+03    0.78731E+03   -0.44927E+04 31200   0.667E+02
DAV:   2    -0.129846880788E+03   -0.91716E+03   -0.78965E+03 40968   0.151E+02
DAV:   3    -0.291188567496E+03   -0.16134E+03   -0.15931E+03 38976   0.635E+01
DAV:   4    -0.295668855999E+03   -0.44803E+01   -0.44630E+01 37344   0.139E+01
DAV:   5    -0.295804114768E+03   -0.13526E+00   -0.13510E+00 41568   0.219E+00
RMM:   6    -0.295807231060E+03   -0.31163E-02   -0.31163E-02 39896   0.330E-01
RMM:   7    -0.295807153666E+03    0.77394E-04   -0.34184E-03 53206   0.112E-01
RMM:   8    -0.295807149936E+03    0.37305E-05   -0.14445E-04 49954   0.186E-02
RMM:   9    -0.295807150726E+03   -0.79078E-06   -0.12527E-05 47850   0.464E-03
RMM:  10    -0.295807150738E+03   -0.11381E-07   -0.87337E-07 39588   0.120E-03
   1 F= -.29580715E+03 E0= -.29580580E+03  d E =-.270856E-02  mag=    -0.2871
 writing wavefunctions
Job  /jobmgr/lsf8.0/8.0/linux2.6-glibc2.3-x86_64/bin/intelmpi_wrapper -np 24 /home/xuzp/bin/vasp5.3.5_isif_cc

TID   HOST_NAME   COMMAND_LINE            STATUS            TERMINATION_TIME
===== ========== ================  =======================  ===================
00000 c18b01     /home/xuzp/bin/v  Done                     08/23/2019 22:54:22
00001 c18b01     /home/xuzp/bin/v  Done                     08/23/2019 22:54:22
00002 c18b01     /home/xuzp/bin/v  Done                     08/23/2019 22:54:22
00003 c18b01     /home/xuzp/bin/v  Done                     08/23/2019 22:54:22
00004 c18b01     /home/xuzp/bin/v  Done                     08/23/2019 22:54:22
00005 c18b01     /home/xuzp/bin/v  Done                     08/23/2019 22:54:22
00006 c18b01     /home/xuzp/bin/v  Done                     08/23/2019 22:54:22
00007 c18b01     /home/xuzp/bin/v  Done                     08/23/2019 22:54:22
00008 c18b01     /home/xuzp/bin/v  Done                     08/23/2019 22:54:22
00009 c18b01     /home/xuzp/bin/v  Done                     08/23/2019 22:54:22
00010 c18b01     /home/xuzp/bin/v  Done                     08/23/2019 22:54:22
00011 c18b01     /home/xuzp/bin/v  Done                     08/23/2019 22:54:22
00012 c10b19     /home/xuzp/bin/v  Done                     08/23/2019 22:50:53
00013 c10b19     /home/xuzp/bin/v  Done                     08/23/2019 22:50:53
00014 c10b19     /home/xuzp/bin/v  Done                     08/23/2019 22:50:53
00015 c10b19     /home/xuzp/bin/v  Done                     08/23/2019 22:50:52
00016 c10b19     /home/xuzp/bin/v  Done                     08/23/2019 22:50:52
00017 c10b19     /home/xuzp/bin/v  Done                     08/23/2019 22:50:52
00018 c10b19     /home/xuzp/bin/v  Done                     08/23/2019 22:50:52
00019 c10b19     /home/xuzp/bin/v  Done                     08/23/2019 22:50:52
00020 c10b19     /home/xuzp/bin/v  Done                     08/23/2019 22:50:52
00021 c10b19     /home/xuzp/bin/v  Done                     08/23/2019 22:50:52
00022 c10b19     /home/xuzp/bin/v  Done                     08/23/2019 22:50:53
00023 c10b19     /home/xuzp/bin/v  Done                     08/23/2019 22:50:52
