 vasp.5.3.5 31Mar14 (build May  5 2015 00:43:50) complex                        
  
 executed on             LinuxIFC date 2019.08.23  16:49:22
 running on   24 total cores
 distrk:  each k-point on   24 cores,    1 groups
 distr:  one band on NCORES_PER_BAND=   1 cores,   24 groups


--------------------------------------------------------------------------------------------------------


 INCAR:
 POTCAR:   PAW_PBE C 08Apr2002                    
 POTCAR:    PAW_PBE Na_pv 19Sep2006               

 ----------------------------------------------------------------------------- 
|                                                                             |
|           W    W    AA    RRRRR   N    N  II  N    N   GGGG   !!!           |
|           W    W   A  A   R    R  NN   N  II  NN   N  G    G  !!!           |
|           W    W  A    A  R    R  N N  N  II  N N  N  G       !!!           |
|           W WW W  AAAAAA  RRRRR   N  N N  II  N  N N  G  GGG   !            |
|           WW  WW  A    A  R   R   N   NN  II  N   NN  G    G                |
|           W    W  A    A  R    R  N    N  II  N    N   GGGG   !!!           |
|                                                                             |
|      For optimal performance we recommend to set                            |
|        NCORE= 4 - approx SQRT( number of cores)                             |
|      NCORE specifies how many cores store one orbital (NPAR=cpu/NCORE).     |
|      This setting can  greatly improve the performance of VASP for DFT.     |
|      The default, NPAR=number of cores might be grossly inefficient         |
|      on modern multi-core architectures or massively parallel machines.     |
|      Do your own testing !!!!                                               |
|      Unfortunately you need to use the default for GW and RPA calculations. |
|      (for HF NCORE is supported but not extensively tested yet)             |
|                                                                             |
 ----------------------------------------------------------------------------- 

 POTCAR:   PAW_PBE C 08Apr2002                    
   VRHFIN =C: s2p2                                                              
   LEXCH  = PE                                                                  
   EATOM  =   147.1560 eV,   10.8157 Ry                                         
                                                                                
   TITEL  = PAW_PBE C 08Apr2002                                                 
   LULTRA =        F    use ultrasoft PP ?                                      
   IUNSCR =        0    unscreen: 0-lin 1-nonlin 2-no                           
   RPACOR =     .000    partial core radius                                     
   POMASS =   12.011; ZVAL   =    4.000    mass and valenz                      
   RCORE  =    1.500    outmost cutoff radius                                   
   RWIGS  =    1.630; RWIGS  =     .863    wigner-seitz radius (au A)           
   ENMAX  =  400.000; ENMIN  =  300.000 eV                                      
   ICORE  =        2    local potential                                         
   LCOR   =        T    correct aug charges                                     
   LPAW   =        T    paw PP                                                  
   EAUG   =  644.873                                                            
   DEXC   =     .000                                                            
   RMAX   =    2.266    core radius for proj-oper                               
   RAUG   =    1.300    factor for augmentation sphere                          
   RDEP   =    1.501    radius for radial grids                                 
   RDEPT  =    1.300    core radius for aug-charge                              
   QCUT   =   -5.516; QGAM   =   11.032    optimization parameters              
                                                                                
   Description                                                                  
     l     E      TYP  RCUT    TYP  RCUT                                        
     0   .000     23  1.200                                                     
     0   .000     23  1.200                                                     
     1   .000     23  1.500                                                     
     1  2.500     23  1.500                                                     
     2   .000      7  1.500                                                     
  local pseudopotential read in
  atomic valenz-charges read in
  non local Contribution for L=           0  read in
    real space projection operators read in
  non local Contribution for L=           0  read in
    real space projection operators read in
  non local Contribution for L=           1  read in
    real space projection operators read in
  non local Contribution for L=           1  read in
    real space projection operators read in
    PAW grid and wavefunctions read in
 
   number of l-projection  operators is LMAX  =           4
   number of lm-projection operators is LMMAX =           8
 
 POTCAR:    PAW_PBE Na_pv 19Sep2006               
   VRHFIN =Na: p6s1                                                             
   LEXCH  = PE                                                                  
   EATOM  =   766.0439 eV,   56.3026 Ry                                         
                                                                                
   TITEL  = PAW_PBE Na_pv 19Sep2006                                             
   LULTRA =        F    use ultrasoft PP ?                                      
   IUNSCR =        1    unscreen: 0-lin 1-nonlin 2-no                           
   RPACOR =    1.800    partial core radius                                     
   POMASS =   22.990; ZVAL   =    7.000    mass and valenz                      
   RCORE  =    2.200    outmost cutoff radius                                   
   RWIGS  =    2.200; RWIGS  =    1.164    wigner-seitz radius (au A)           
   ENMAX  =  259.561; ENMIN  =  194.671 eV                                      
   ICORE  =        2    local potential                                         
   LCOR   =        T    correct aug charges                                     
   LPAW   =        T    paw PP                                                  
   EAUG   =  368.056                                                            
   DEXC   =     .000                                                            
   RMAX   =    2.862    core radius for proj-oper                               
   RAUG   =    1.300    factor for augmentation sphere                          
   RDEP   =    2.259    radius for radial grids                                 
   QCUT   =   -4.368; QGAM   =    8.735    optimization parameters              
                                                                                
   Description                                                                  
     l     E      TYP  RCUT    TYP  RCUT                                        
     1   .000     23  2.000                                                     
     1   .500     23  2.000                                                     
     0   .000     23  2.200                                                     
     0  2.500     23  2.200                                                     
     2  -.100     23  2.200                                                     
  local pseudopotential read in
  partial core-charges read in
  atomic valenz-charges read in
  non local Contribution for L=           1  read in
    real space projection operators read in
  non local Contribution for L=           1  read in
    real space projection operators read in
  non local Contribution for L=           0  read in
    real space projection operators read in
  non local Contribution for L=           0  read in
    real space projection operators read in
    PAW grid and wavefunctions read in
 
   number of l-projection  operators is LMAX  =           4
   number of lm-projection operators is LMMAX =           8
 
 Optimization of the real space projectors (new method)

 maximal supplied QI-value         = 25.13
 optimisation between [QCUT,QGAM] = [ 11.31, 22.87] = [ 35.82,146.48] Ry 
 Optimized for a Real-space Cutoff    1.00 Angstroem

   l    n(q)    QCUT    max X(q) W(low)/X(q) W(high)/X(q)  e(spline) 
   0      7    11.310     5.582    0.73E-04    0.21E-03    0.14E-07
   0      7    11.310    69.432    0.43E-03    0.13E-02    0.18E-06
   1      6    11.310     2.780    0.17E-04    0.12E-03    0.37E-07
   1      6    11.310     4.549    0.34E-03    0.55E-03    0.92E-07
 Optimization of the real space projectors (new method)

 maximal supplied QI-value         = 17.01
 optimisation between [QCUT,QGAM] = [ 11.40, 22.79] = [ 36.36,145.44] Ry 
 Optimized for a Real-space Cutoff    1.43 Angstroem

   l    n(q)    QCUT    max X(q) W(low)/X(q) W(high)/X(q)  e(spline) 
   1      9    11.395     4.977    0.21E-05    0.57E-05    0.25E-07
   1      9    11.395     7.312    0.32E-03    0.23E-03    0.25E-06
   0     10    11.395    36.258    0.19E-04    0.13E-05    0.99E-08
   0     10    11.395    45.649    0.25E-04    0.30E-05    0.55E-07
 PAW_PBE C 08Apr2002                    :
 energy of atom  1       EATOM= -147.1560
 kinetic energy error for atom=    0.0076 (will be added to EATOM!!)
  PAW_PBE Na_pv 19Sep2006               :
 energy of atom  2       EATOM= -766.0439
 kinetic energy error for atom=    0.0021 (will be added to EATOM!!)
 
 
 POSCAR: graphene+Na                             
  positions in direct lattice
  velocities in cartesian coordinates
 exchange correlation table for  LEXCH =        8
   RHO(1)=    0.500       N(1)  =     2000
   RHO(2)=  100.500       N(2)  =     4000
 


--------------------------------------------------------------------------------------------------------


 ion  position               nearest neighbor table
   1  0.166  0.083  0.500-  29 1.42  18 1.42  17 1.43
   2  0.417  0.083  0.500-  30 1.42  18 1.42  19 1.43
   3  0.667  0.083  0.500-  19 1.42  31 1.42  20 1.42
   4  0.917  0.083  0.500-  17 1.42  32 1.42  20 1.42
   5  0.166  0.333  0.500-  17 1.42  21 1.42  22 1.43
   6  0.416  0.333  0.499-  18 1.43  22 1.43  23 1.43
   7  0.667  0.333  0.500-  24 1.42  19 1.42  23 1.43
   8  0.917  0.333  0.500-  24 1.42  21 1.42  20 1.42
   9  0.166  0.583  0.500-  25 1.42  26 1.42  21 1.43
  10  0.416  0.584  0.499-  26 1.43  27 1.43  22 1.43
  11  0.667  0.584  0.499-  28 1.43  27 1.43  23 1.43
  12  0.917  0.583  0.500-  25 1.42  28 1.42  24 1.43
  13  0.167  0.833  0.500-  25 1.42  29 1.42  30 1.42
  14  0.417  0.834  0.500-  30 1.42  26 1.42  31 1.43
  15  0.667  0.834  0.500-  32 1.42  31 1.42  27 1.43
  16  0.917  0.834  0.500-  29 1.42  28 1.42  32 1.43
  17  0.083  0.166  0.500-   4 1.42   5 1.42   1 1.43
  18  0.333  0.166  0.500-   2 1.42   1 1.42   6 1.43
  19  0.583  0.166  0.500-   3 1.42   7 1.42   2 1.43
  20  0.833  0.167  0.500-   3 1.42   4 1.42   8 1.42
  21  0.083  0.417  0.500-   8 1.42   5 1.42   9 1.43
  22  0.333  0.416  0.499-   5 1.43   6 1.43  10 1.43
  23  0.584  0.416  0.499-   7 1.43  11 1.43   6 1.43
  24  0.834  0.417  0.500-   8 1.42   7 1.42  12 1.43
  25  0.083  0.667  0.500-   9 1.42  12 1.42  13 1.42
  26  0.333  0.667  0.500-  14 1.42   9 1.42  10 1.43
  27  0.584  0.667  0.499-  15 1.43  11 1.43  10 1.43
  28  0.834  0.667  0.500-  12 1.42  16 1.42  11 1.43
  29  0.083  0.917  0.500-   1 1.42  16 1.42  13 1.42
  30  0.333  0.917  0.500-  14 1.42   2 1.42  13 1.42
  31  0.583  0.917  0.500-   3 1.42  15 1.42  14 1.43
  32  0.834  0.917  0.500-   4 1.42  15 1.42  16 1.43
  33  0.500  0.500  0.615-
 
  LATTYP: Found a hexagonal cell.
 ALAT       =     9.8742351532
 C/A-ratio  =     2.0254733344
  
  Lattice vectors:
  
 A1 = (   9.8742351532,   0.0000000000,   0.0000000000)
 A2 = (  -4.9371175766,   8.5513384856,   0.0000000000)
 A3 = (   0.0000000000,   0.0000000000,  20.0000000000)


Analysis of symmetry for initial positions (statically):
=====================================================================
 Subroutine PRICEL returns:
 Original cell was already a primitive cell.
 

 Routine SETGRP: Setting up the symmetry group for a 
 hexagonal supercell.


 Subroutine GETGRP returns: Found  1 space group operations
 (whereof  1 operations were pure point group operations)
 out of a pool of 24 trial point group operations.


The static configuration has the point symmetry C_1 .


Analysis of symmetry for dynamics (positions and initial velocities):
=====================================================================
 Subroutine PRICEL returns:
 Original cell was already a primitive cell.
 

 Routine SETGRP: Setting up the symmetry group for a 
 hexagonal supercell.


 Subroutine GETGRP returns: Found  1 space group operations
 (whereof  1 operations were pure point group operations)
 out of a pool of 24 trial point group operations.


The dynamic configuration has the point symmetry C_1 .


Analysis of constrained symmetry for selective dynamics:
=====================================================================
 Subroutine PRICEL returns:
 Original cell was already a primitive cell.
 

 Routine SETGRP: Setting up the symmetry group for a 
 hexagonal supercell.


 Subroutine GETGRP returns: Found  1 space group operations
 (whereof  1 operations were pure point group operations)
 out of a pool of 24 trial point group operations.


The constrained configuration has the point symmetry C_1 .


Analysis of magnetic symmetry:
=====================================================================
 Subroutine PRICEL returns:
 Original cell was already a primitive cell.
 

 Subroutine MAGSYM returns: Found  1 space group operations
 (whereof  1 operations were pure point group operations)
 out of a pool of  1 trial space group operations
 (whereof  1 operations were pure point group operations)
 and found also     1 'primitive' translations


The magnetic configuration has the point symmetry C_1 .
 
 
 KPOINTS: k-mesh for unfolding the band structure 
  k-points in reciprocal lattice
Space group operators:
 irot       det(A)        alpha          n_x          n_y          n_z        tau_x        tau_y        tau_z
    1     1.000000     0.000000     1.000000     0.000000     0.000000     0.000000     0.000000     0.000000


--------------------------------------------------------------------------------------------------------




 Dimension of arrays:
   k-points           NKPTS =     50   k-points in BZ     NKDIM =     50   number of bands    NBANDS=    144
   number of dos      NEDOS =    301   number of ions     NIONS =     33
   non local maximal  LDIM  =      4   non local SUM 2l+1 LMDIM =      8
   total plane-waves  NPLWV = ******
   max r-space proj   IRMAX =  20492   max aug-charges    IRDMAX=   5891
   dimension x,y,z NGX =   112 NGY =  112 NGZ =  224
   dimension x,y,z NGXF=   112 NGYF=  112 NGZF=  224
   support grid    NGXF=   112 NGYF=  112 NGZF=  224
   ions per type =              32   1
 NGX,Y,Z   is equivalent  to a cutoff of  18.86, 18.86, 18.62 a.u.
 NGXF,Y,Z  is equivalent  to a cutoff of  18.86, 18.86, 18.62 a.u.


 I would recommend the setting:
   dimension x,y,z NGX =    54 NGY =   54 NGZ =  109
 SYSTEM =  Graphene                                
 POSCAR =  graphene+Na                             

 Startparameter for this run:
   NWRITE =      2    write-flag & timer
   PREC   = normal    normal or accurate (medium, high low for compatibility)
   ISTART =      0    job   : 0-new  1-cont  2-samecut
   ICHARG =     11    charge: 1-file 2-atom 10-const
   ISPIN  =      2    spin polarized calculation?
   LNONCOLLINEAR =      F non collinear calculations
   LSORBIT =      F    spin-orbit coupling
   INIWAV =      1    electr: 0-lowe 1-rand  2-diag
   LASPH  =      F    aspherical Exc in radial PAW
   METAGGA=      F    non-selfconsistent MetaGGA calc.

 Electronic Relaxation 1
   ENCUT  =  500.0 eV  36.75 Ry    6.06 a.u.  18.00 18.00 36.46*2*pi/ulx,y,z
   ENINI  =  500.0     initial cutoff
   ENAUG  =  644.9 eV  augmentation charge cutoff
   NELM   =    200;   NELMIN=  2; NELMDL= -5     # of ELM steps 
   EDIFF  = 0.1E-06   stopping-criterion for ELM
   LREAL  =      T    real-space projection
   NLSPLINE    = F    spline interpolate recip. space projectors
   LCOMPAT=      F    compatible to vasp.4.4
   GGA_COMPAT  = T    GGA compatible to vasp.4.4-vasp.4.6
   LMAXPAW     = -100 max onsite density
   LMAXMIX     =    2 max onsite mixed and CHGCAR
   VOSKOWN=      0    Vosko Wilk Nusair interpolation
   ROPT   =   -0.00050  -0.00050
 Ionic relaxation
   EDIFFG = 0.1E-05   stopping-criterion for IOM
   NSW    =      0    number of steps for IOM
   NBLOCK =      1;   KBLOCK =      1    inner block; outer block 
   IBRION =     -1    ionic relax: 0-MD 1-quasi-New 2-CG
   NFREE  =      0    steps in history (QN), initial steepest desc. (CG)
   ISIF   =      2    stress and relaxation
   IWAVPR =     10    prediction:  0-non 1-charg 2-wave 3-comb
   ISYM   =      2    0-nonsym 1-usesym 2-fastsym
   LCORR  =      T    Harris-Foulkes like correction to forces

   POTIM  = 0.5000    time-step for ionic-motion
   TEIN   =    0.0    initial temperature
   TEBEG  =    0.0;   TEEND  =   0.0 temperature during run
   SMASS  =  -3.00    Nose mass-parameter (am)
   estimated Nose-frequenzy (Omega)   =  0.10E-29 period in steps =****** mass=  -0.223E-26a.u.
   SCALEE = 1.0000    scale energy and forces
   NPACO  =    256;   APACO  = 16.0  distance and # of slots for P.C.
   PSTRESS=    0.0 pullay stress

  Mass of Ions in am
   POMASS =  12.01 22.99
  Ionic Valenz
   ZVAL   =   4.00  7.00
  Atomic Wigner-Seitz radii
   RWIGS  =  -1.00 -1.00
  virtual crystal weights 
   VCA    =   1.00  1.00
   NELECT =     135.0000    total number of electrons
   NUPDOWN=      -1.0000    fix difference up-down

 DOS related values:
   EMIN   =  10.00;   EMAX   =-10.00  energy-range for DOS
   EFERMI =   0.00
   ISMEAR =     0;   SIGMA  =   0.03  broadening in eV -4-tet -1-fermi 0-gaus

 Electronic relaxation 2 (details)
   IALGO  =     68    algorithm
   LDIAG  =      T    sub-space diagonalisation (order eigenvalues)
   LSUBROT=      F    optimize rotation matrix (better conditioning)
   TURBO    =      0    0=normal 1=particle mesh
   IRESTART =      0    0=no restart 2=restart with 2 vectors
   NREBOOT  =      0    no. of reboots
   NMIN     =      0    reboot dimension
   EREF     =   0.00    reference energy to select bands
   IMIX   =      4    mixing-type and parameters
     AMIX     =   0.40;   BMIX     =  1.00
     AMIX_MAG =   1.60;   BMIX_MAG =  1.00
     AMIN     =   0.10
     WC   =   100.;   INIMIX=   1;  MIXPRE=   1;  MAXMIX= -45

 Intra band minimization:
   WEIMIN = 0.0000     energy-eigenvalue tresh-hold
   EBREAK =  0.17E-09  absolut break condition
   DEPER  =   0.30     relativ break condition  

   TIME   =   0.40     timestep for ELM

  volume/ion in A,a.u.               =      51.17       345.34
  Fermi-wavevector in a.u.,A,eV,Ry     =   0.705229  1.332690  6.766832  0.497348
  Thomas-Fermi vector in A             =   1.790684
 
 Write flags
   LWAVE  =      T    write WAVECAR
   LCHARG =      F    write CHGCAR
   LVTOT  =      F    write LOCPOT, total local potential
   LVHAR  =      F    write LOCPOT, Hartree potential only
   LELF   =      F    write electronic localiz. function (ELF)
   LORBIT =      0    0 simple, 1 ext, 2 COOP (PROOUT)


 Dipole corrections
   LMONO  =      F    monopole corrections only (constant potential shift)
   LDIPOL =      T    correct potential (dipole corrections)
   IDIPOL =      3    1-x, 2-y, 3-z, 4-all directions 
   EPSILON=  1.0000000 bulk dielectric constant

 Exchange correlation treatment:
   GGA     =    --    GGA type
   LEXCH   =     8    internal setting for exchange type
   VOSKOWN=      0    Vosko Wilk Nusair interpolation
   LHFCALC =     F    Hartree Fock is set to
   LHFONE  =     F    Hartree Fock one center treatment
   AEXX    =    0.0000 exact exchange contribution

 Linear response parameters
   LEPSILON=     F    determine dielectric tensor
   LRPA    =     F    only Hartree local field effects (RPA)
   LNABLA  =     F    use nabla operator in PAW spheres
   LVEL    =     F    velocity operator in full k-point grid
   LINTERFAST=   F  fast interpolation
   KINTER  =     0    interpolate to denser k-point grid
   CSHIFT  =0.1000    complex shift for real part using Kramers Kronig
   OMEGAMAX=  -1.0    maximum frequency
   DEG_THRESHOLD= 0.2000000E-02 threshold for treating states as degnerate
   RTIME   =    0.100 relaxation time in fs

 Orbital magnetization related:
   ORBITALMAG=     F  switch on orbital magnetization
   LCHIMAG   =     F  perturbation theory with respect to B field
   DQ        =  0.001000  dq finite difference perturbation B field



--------------------------------------------------------------------------------------------------------


 Static calculation
 charge density and potential remain constant during run
 spin polarized calculation
 RMM-DIIS sequential band-by-band and
  variant of blocked Davidson during initial phase
 perform sub-space diagonalisation
    before iterative eigenvector-optimisation
 no mixing
 using additional bands           76
 real space projection scheme for non local part
 use partial core corrections
 calculate Harris-corrections to forces 
   (improved forces if not selfconsistent)
 use gradient corrections 
 WARNING: stress and forces are not correct
  (second derivative of E(xc) not defined)
 use of overlap-Matrix (Vanderbilt PP)
 Gauss-broadening in eV      SIGMA  =   0.03


--------------------------------------------------------------------------------------------------------


  energy-cutoff  :      500.00
  volume of cell :     1688.76
      direct lattice vectors                 reciprocal lattice vectors
     9.874235153  0.000000000  0.000000000     0.101273667  0.058470379  0.000000000
    -4.937117577  8.551338486  0.000000000     0.000000000  0.116940757  0.000000000
     0.000000000  0.000000000 20.000000000     0.000000000  0.000000000  0.050000000

  length of vectors
     9.874235153  9.874235153 20.000000000     0.116940757  0.116940757  0.050000000


 
 k-points in units of 2pi/SCALE and weight: k-mesh for unfolding the band structure 
   0.00000000  0.00000000  0.00000000       0.020
   0.00843947  0.00487253  0.00000000       0.020
   0.01687894  0.00974506  0.00000000       0.020
   0.02531842  0.01461759  0.00000000       0.020
   0.03375789  0.01949013  0.00000000       0.020
   0.04219736  0.02436266  0.00000000       0.020
   0.05063683  0.02923519  0.00000000       0.020
  -0.04219736 -0.02436266  0.00000000       0.020
  -0.03375789 -0.01949013  0.00000000       0.020
  -0.02531842 -0.01461759  0.00000000       0.020
  -0.01687894 -0.00974506  0.00000000       0.020
  -0.00843947 -0.00487253  0.00000000       0.020
  -0.00281316  0.00487253  0.00000000       0.020
  -0.00562631  0.00974506  0.00000000       0.020
  -0.00843947  0.01461759  0.00000000       0.020
  -0.01125263  0.01949013  0.00000000       0.020
  -0.01406579  0.02436266  0.00000000       0.020
  -0.01687894  0.02923519  0.00000000       0.020
  -0.01969210  0.03410772  0.00000000       0.020
  -0.02250526  0.03898025  0.00000000       0.020
  -0.02531842  0.04385278  0.00000000       0.020
  -0.02813157 -0.06821544  0.00000000       0.020
  -0.03094473 -0.06334291  0.00000000       0.020
  -0.03375789 -0.05847038  0.00000000       0.020
  -0.03657105 -0.05359785  0.00000000       0.020
  -0.03938420 -0.04872532  0.00000000       0.020
  -0.04219736 -0.04385278  0.00000000       0.020
  -0.04501052 -0.03898025  0.00000000       0.020
  -0.04782368 -0.03410772  0.00000000       0.020
   0.04782368  0.03410772  0.00000000       0.020
   0.04501052  0.03898025  0.00000000       0.020
   0.04219736  0.04385278  0.00000000       0.020
   0.03938420  0.04872532  0.00000000       0.020
   0.03657105  0.05359785  0.00000000       0.020
   0.03375789  0.05847038  0.00000000       0.020
   0.02813157  0.04872532  0.00000000       0.020
   0.02250526  0.03898025  0.00000000       0.020
   0.01687894  0.02923519  0.00000000       0.020
   0.01125263  0.01949013  0.00000000       0.020
   0.00562631  0.00974506  0.00000000       0.020
  -0.00562631 -0.00974506  0.00000000       0.020
  -0.01125263 -0.01949013  0.00000000       0.020
  -0.01687894 -0.02923519  0.00000000       0.020
  -0.02250526 -0.03898025  0.00000000       0.020
  -0.02813157 -0.04872532  0.00000000       0.020
  -0.03938420 -0.06821544  0.00000000       0.020
  -0.04501052 -0.07796050  0.00000000       0.020
   0.05063683  0.08770557  0.00000000       0.020
   0.04501052  0.07796050  0.00000000       0.020
   0.03938420  0.06821544  0.00000000       0.020
 
 k-points in reciprocal lattice and weights: k-mesh for unfolding the band structure 
   0.00000000  0.00000000  0.00000000       0.020
   0.08333333  0.00000000  0.00000000       0.020
   0.16666667  0.00000000  0.00000000       0.020
   0.25000000  0.00000000  0.00000000       0.020
   0.33333333  0.00000000  0.00000000       0.020
   0.41666667  0.00000000  0.00000000       0.020
   0.50000000  0.00000000  0.00000000       0.020
  -0.41666667  0.00000000  0.00000000       0.020
  -0.33333333  0.00000000  0.00000000       0.020
  -0.25000000  0.00000000  0.00000000       0.020
  -0.16666667  0.00000000  0.00000000       0.020
  -0.08333333  0.00000000  0.00000000       0.020
  -0.02777778  0.05555556  0.00000000       0.020
  -0.05555556  0.11111111  0.00000000       0.020
  -0.08333333  0.16666667  0.00000000       0.020
  -0.11111111  0.22222222  0.00000000       0.020
  -0.13888889  0.27777778  0.00000000       0.020
  -0.16666667  0.33333333  0.00000000       0.020
  -0.19444444  0.38888889  0.00000000       0.020
  -0.22222222  0.44444444  0.00000000       0.020
  -0.25000000  0.50000000  0.00000000       0.020
  -0.27777778 -0.44444444  0.00000000       0.020
  -0.30555556 -0.38888889  0.00000000       0.020
  -0.33333333 -0.33333333  0.00000000       0.020
  -0.36111111 -0.27777778  0.00000000       0.020
  -0.38888889 -0.22222222  0.00000000       0.020
  -0.41666667 -0.16666667  0.00000000       0.020
  -0.44444444 -0.11111111  0.00000000       0.020
  -0.47222222 -0.05555556  0.00000000       0.020
   0.47222222  0.05555556  0.00000000       0.020
   0.44444444  0.11111111  0.00000000       0.020
   0.41666667  0.16666667  0.00000000       0.020
   0.38888889  0.22222222  0.00000000       0.020
   0.36111111  0.27777778  0.00000000       0.020
   0.33333333  0.33333333  0.00000000       0.020
   0.27777778  0.27777778  0.00000000       0.020
   0.22222222  0.22222222  0.00000000       0.020
   0.16666667  0.16666667  0.00000000       0.020
   0.11111111  0.11111111  0.00000000       0.020
   0.05555556  0.05555556  0.00000000       0.020
  -0.05555556 -0.05555556  0.00000000       0.020
  -0.11111111 -0.11111111  0.00000000       0.020
  -0.16666667 -0.16666667  0.00000000       0.020
  -0.22222222 -0.22222222  0.00000000       0.020
  -0.27777778 -0.27777778  0.00000000       0.020
  -0.38888889 -0.38888889  0.00000000       0.020
  -0.44444444 -0.44444444  0.00000000       0.020
   0.50000000  0.50000000  0.00000000       0.020
   0.44444444  0.44444444  0.00000000       0.020
   0.38888889  0.38888889  0.00000000       0.020
 
 position of ions in fractional coordinates (direct lattice) 
   0.16647518  0.08315087  0.50000000
   0.41667537  0.08315076  0.49997437
   0.66671650  0.08335870  0.50000000
   0.91664183  0.08335826  0.50008616
   0.16610479  0.33305197  0.49978934
   0.41637835  0.33275755  0.49915571
   0.66694816  0.33305189  0.50000000
   0.91664144  0.33328375  0.50010917
   0.16647517  0.58332486  0.49999609
   0.41637829  0.58362172  0.49918330
   0.66724248  0.58362164  0.49915816
   0.91684911  0.58332457  0.49997861
   0.16666649  0.83333333  0.50000057
   0.41667496  0.83352477  0.49998966
   0.66694814  0.83389548  0.49978569
   0.91684906  0.83352477  0.50000000
   0.08315010  0.16647490  0.50000000
   0.33305307  0.16610452  0.49977525
   0.58332426  0.16647545  0.50003825
   0.83333319  0.16666663  0.50003104
   0.08315065  0.41667550  0.50002052
   0.33275681  0.41637753  0.49916998
   0.58362013  0.41638001  0.49921548
   0.83352450  0.41667579  0.50006388
   0.08335882  0.66671700  0.50000000
   0.33305140  0.66694854  0.49979251
   0.58362234  0.66724286  0.49917347
   0.83389569  0.66694694  0.49977368
   0.08335836  0.91664160  0.50007978
   0.33328300  0.91664114  0.50000000
   0.58332475  0.91684964  0.49999068
   0.83352513  0.91684991  0.50000000
   0.50000000  0.50000000  0.61493496
 
 position of ions in cartesian coordinates  (Angst):
   1.23328951  0.71105121 10.00000000
   3.70382555  0.71105027  9.99948738
   6.17176375  0.71282850 10.00000000
   8.63958742  0.71282467 10.00172318
  -0.00415897  2.84804013  9.99578683
   2.46855454  2.84552248  9.98311429
   4.94128660  2.84803941 10.00000000
   7.40567214  2.85002212 10.00218346
  -1.23612840  4.98820832  9.99992172
   1.23000808  4.99074687  9.98366595
   3.70710049  4.99074623  9.98316313
   6.17324176  4.98820582  9.99957230
  -2.46856053  7.12611539 10.00001147
  -0.00086325  7.12775246  9.99979321
   2.46856271  7.13092251  9.99571371
   4.93797349  7.12775241 10.00000000
  -0.00086248  1.42358319 10.00000000
   2.46856680  1.42041601  9.99550506
   4.93797205  1.42358793 10.00076492
   7.40567514  1.42522273 10.00062070
  -1.23612688  3.56313323 10.00041033
   1.23001415  3.56058518  9.98339961
   3.70708538  3.56060636  9.98430964
   6.17323956  3.56313574 10.00127762
  -2.46855564  5.70132272 10.00000000
  -0.00417549  5.70330273  9.99585014
   2.46856781  5.70581955  9.98346948
   4.94128669  5.70328905  9.99547356
  -3.70246725  7.83851256 10.00159564
  -1.23465039  7.83850862 10.00000000
   1.23329130  7.84029160  9.99981369
   3.70382735  7.84029390 10.00000000
   2.46855879  4.27566924 12.29869923
 


--------------------------------------------------------------------------------------------------------


 k-point  1 :   0.0000 0.0000 0.0000  plane waves:   42745
 k-point  2 :   0.0833 0.0000 0.0000  plane waves:   42779
 k-point  3 :   0.1667 0.0000 0.0000  plane waves:   42813
 k-point  4 :   0.2500 0.0000 0.0000  plane waves:   42881
 k-point  5 :   0.3333 0.0000 0.0000  plane waves:   42905
 k-point  6 :   0.4167 0.0000 0.0000  plane waves:   42888
 k-point  7 :   0.5000 0.0000 0.0000  plane waves:   42830
 k-point  8 :  -0.4167 0.0000 0.0000  plane waves:   42888
 k-point  9 :  -0.3333 0.0000 0.0000  plane waves:   42905
 k-point 10 :  -0.2500 0.0000 0.0000  plane waves:   42881
 k-point 11 :  -0.1667 0.0000 0.0000  plane waves:   42813
 k-point 12 :  -0.0833 0.0000 0.0000  plane waves:   42779
 k-point 13 :  -0.0278 0.0556 0.0000  plane waves:   42782
 k-point 14 :  -0.0556 0.1111 0.0000  plane waves:   42794
 k-point 15 :  -0.0833 0.1667 0.0000  plane waves:   42826
 k-point 16 :  -0.1111 0.2222 0.0000  plane waves:   42888
 k-point 17 :  -0.1389 0.2778 0.0000  plane waves:   42896
 k-point 18 :  -0.1667 0.3333 0.0000  plane waves:   42876
 k-point 19 :  -0.1944 0.3889 0.0000  plane waves:   42910
 k-point 20 :  -0.2222 0.4444 0.0000  plane waves:   42886
 k-point 21 :  -0.2500 0.5000 0.0000  plane waves:   42898
 k-point 22 :  -0.2778-0.4444 0.0000  plane waves:   42906
 k-point 23 :  -0.3056-0.3889 0.0000  plane waves:   42872
 k-point 24 :  -0.3333-0.3333 0.0000  plane waves:   42816
 k-point 25 :  -0.3611-0.2778 0.0000  plane waves:   42882
 k-point 26 :  -0.3889-0.2222 0.0000  plane waves:   42904
 k-point 27 :  -0.4167-0.1667 0.0000  plane waves:   42864
 k-point 28 :  -0.4444-0.1111 0.0000  plane waves:   42906
 k-point 29 :  -0.4722-0.0556 0.0000  plane waves:   42880
 k-point 30 :   0.4722 0.0556 0.0000  plane waves:   42880
 k-point 31 :   0.4444 0.1111 0.0000  plane waves:   42906
 k-point 32 :   0.4167 0.1667 0.0000  plane waves:   42864
 k-point 33 :   0.3889 0.2222 0.0000  plane waves:   42904
 k-point 34 :   0.3611 0.2778 0.0000  plane waves:   42882
 k-point 35 :   0.3333 0.3333 0.0000  plane waves:   42816
 k-point 36 :   0.2778 0.2778 0.0000  plane waves:   42906
 k-point 37 :   0.2222 0.2222 0.0000  plane waves:   42886
 k-point 38 :   0.1667 0.1667 0.0000  plane waves:   42876
 k-point 39 :   0.1111 0.1111 0.0000  plane waves:   42888
 k-point 40 :   0.0556 0.0556 0.0000  plane waves:   42794
 k-point 41 :  -0.0556-0.0556 0.0000  plane waves:   42794
 k-point 42 :  -0.1111-0.1111 0.0000  plane waves:   42888
 k-point 43 :  -0.1667-0.1667 0.0000  plane waves:   42876
 k-point 44 :  -0.2222-0.2222 0.0000  plane waves:   42886
 k-point 45 :  -0.2778-0.2778 0.0000  plane waves:   42906
 k-point 46 :  -0.3889-0.3889 0.0000  plane waves:   42904
 k-point 47 :  -0.4444-0.4444 0.0000  plane waves:   42906
 k-point 48 :   0.5000 0.5000 0.0000  plane waves:   42830
 k-point 49 :   0.4444 0.4444 0.0000  plane waves:   42906
 k-point 50 :   0.3889 0.3889 0.0000  plane waves:   42904

 maximum and minimum number of plane-waves per node :     42910    42745

 maximum number of plane-waves:     42910
 maximum index in each direction: 
   IXMAX=   18   IYMAX=   18   IZMAX=   36
   IXMIN=  -18   IYMIN=  -18   IZMIN=  -36

 NGX is ok and might be reduce to  74
 NGY is ok and might be reduce to  74
 NGZ is ok and might be reduce to 146

 serial   3D FFT for wavefunctions
 parallel 3D FFT for charge:
    minimum data exchange during FFTs selected (reduces bandwidth)


 total amount of memory used by VASP on root node   725183. kBytes
========================================================================

   base      :      30000. kBytes
   nonlr-proj:      28389. kBytes
   fftplans  :      16807. kBytes
   grid      :     235296. kBytes
   one-center:        202. kBytes
   wavefun   :     414489. kBytes
 
     INWAV:  cpu time    0.00: real time    0.00
 initial charge density was supplied:
 number of electron     134.9999915 magnetization      -0.2870733
 keeping initial charge density in first step


--------------------------------------------------------------------------------------------------------


 Maximum index for non-local projection operator        19844
 Maximum index for augmentation-charges          188 (set IRDMAX)


--------------------------------------------------------------------------------------------------------


 First call to EWALD:  gamma=   0.149
 Maximum number of real-space cells 4x 4x 2
 Maximum number of reciprocal cells 2x 2x 4

 FEWALD executed in parallel
    FEWALD:  cpu time    0.00: real time    0.00


----------------------------------------- Iteration    1(   1)  ---------------------------------------


    POTLOK:  cpu time    0.71: real time    0.73
    SETDIJ:  cpu time    0.01: real time    0.01
     EDDAV:  cpu time 1605.32: real time 1621.71
       DOS:  cpu time    0.01: real time    0.01
    --------------------------------------------
      LOOP:  cpu time 1606.04: real time 1622.47

 eigenvalue-minimisations  : 31200
 total energy-change (2. order) : 0.7873092E+03  (-0.4492693E+04)
 number of electron     134.9999915 magnetization      -0.2870733
 augmentation part      134.9999915 magnetization      -0.2870733

 DIPCOR: dipole corrections for dipol
 direction  3 min pos    21,
 dipolmoment           0.000000      0.000000     -0.585315 electrons x Angstroem
 Tr[quadrupol]     -2317.746786

 energy correction for charged system         0.000000 eV
 dipol+quadrupol energy correction           -0.018356 eV
 added-field ion interaction        -14.139652 eV  (added to PSCEN)


 Free energy of the ion-electron system (eV)
  ---------------------------------------------------
  alpha Z        PSCENC =        41.43241275
  Ewald energy   TEWEN  =     21840.33001928
  -Hartree energ DENC   =    -26401.20916086
  -exchange      EXHF   =         0.00000000
  -V(xc)+E(xc)   XCENC  =       485.57576784
  PAW double counting   =      2689.20727064    -2819.12307877
  entropy T*S    EENTRO =        -0.00505065
  eigenvalues    EBANDS =      -523.69025091
  atomic energy  EATOM  =      5474.79130437
  ---------------------------------------------------
  free energy    TOTEN  =       787.30923369 eV

  energy without entropy =      787.31428434  energy(sigma->0) =      787.31175902


--------------------------------------------------------------------------------------------------------




----------------------------------------- Iteration    1(   2)  ---------------------------------------


     EDDAV:  cpu time 1990.86: real time 2010.40
       DOS:  cpu time    0.01: real time    0.01
    --------------------------------------------
      LOOP:  cpu time 1990.87: real time 2010.42

 eigenvalue-minimisations  : 40968
 total energy-change (2. order) :-0.9171561E+03  (-0.7896494E+03)
 number of electron     134.9999915 magnetization      -0.2870733
 augmentation part      134.9999915 magnetization      -0.2870733

 DIPCOR: dipole corrections for dipol
 direction  3 min pos    21,
 dipolmoment           0.000000      0.000000     -0.585315 electrons x Angstroem
 Tr[quadrupol]     -2317.746786

 energy correction for charged system         0.000000 eV
 dipol+quadrupol energy correction           -0.018356 eV
 added-field ion interaction        -14.139652 eV  (added to PSCEN)


 Free energy of the ion-electron system (eV)
  ---------------------------------------------------
  alpha Z        PSCENC =        41.43241275
  Ewald energy   TEWEN  =     21840.33001928
  -Hartree energ DENC   =    -26401.20916086
  -exchange      EXHF   =         0.00000000
  -V(xc)+E(xc)   XCENC  =       485.57576784
  PAW double counting   =      2689.20727064    -2819.12307877
  entropy T*S    EENTRO =        -0.00156986
  eigenvalues    EBANDS =     -1440.84984618
  atomic energy  EATOM  =      5474.79130437
  ---------------------------------------------------
  free energy    TOTEN  =      -129.84688079 eV

  energy without entropy =     -129.84531093  energy(sigma->0) =     -129.84609586


--------------------------------------------------------------------------------------------------------




----------------------------------------- Iteration    1(   3)  ---------------------------------------


     EDDAV:  cpu time 1914.33: real time 1933.16
       DOS:  cpu time    0.01: real time    0.01
    --------------------------------------------
      LOOP:  cpu time 1914.34: real time 1933.18

 eigenvalue-minimisations  : 38976
 total energy-change (2. order) :-0.1613417E+03  (-0.1593056E+03)
 number of electron     134.9999915 magnetization      -0.2870733
 augmentation part      134.9999915 magnetization      -0.2870733

 DIPCOR: dipole corrections for dipol
 direction  3 min pos    21,
 dipolmoment           0.000000      0.000000     -0.585315 electrons x Angstroem
 Tr[quadrupol]     -2317.746786

 energy correction for charged system         0.000000 eV
 dipol+quadrupol energy correction           -0.018356 eV
 added-field ion interaction        -14.139652 eV  (added to PSCEN)


 Free energy of the ion-electron system (eV)
  ---------------------------------------------------
  alpha Z        PSCENC =        41.43241275
  Ewald energy   TEWEN  =     21840.33001928
  -Hartree energ DENC   =    -26401.20916086
  -exchange      EXHF   =         0.00000000
  -V(xc)+E(xc)   XCENC  =       485.57576784
  PAW double counting   =      2689.20727064    -2819.12307877
  entropy T*S    EENTRO =        -0.00352836
  eigenvalues    EBANDS =     -1602.18957439
  atomic energy  EATOM  =      5474.79130437
  ---------------------------------------------------
  free energy    TOTEN  =      -291.18856750 eV

  energy without entropy =     -291.18503913  energy(sigma->0) =     -291.18680331


--------------------------------------------------------------------------------------------------------




----------------------------------------- Iteration    1(   4)  ---------------------------------------


     EDDAV:  cpu time 1850.65: real time 1869.21
       DOS:  cpu time    0.01: real time    0.01
    --------------------------------------------
      LOOP:  cpu time 1850.66: real time 1869.24

 eigenvalue-minimisations  : 37344
 total energy-change (2. order) :-0.4480289E+01  (-0.4462971E+01)
 number of electron     134.9999915 magnetization      -0.2870733
 augmentation part      134.9999915 magnetization      -0.2870733

 DIPCOR: dipole corrections for dipol
 direction  3 min pos    21,
 dipolmoment           0.000000      0.000000     -0.585315 electrons x Angstroem
 Tr[quadrupol]     -2317.746786

 energy correction for charged system         0.000000 eV
 dipol+quadrupol energy correction           -0.018356 eV
 added-field ion interaction        -14.139652 eV  (added to PSCEN)


 Free energy of the ion-electron system (eV)
  ---------------------------------------------------
  alpha Z        PSCENC =        41.43241275
  Ewald energy   TEWEN  =     21840.33001928
  -Hartree energ DENC   =    -26401.20916086
  -exchange      EXHF   =         0.00000000
  -V(xc)+E(xc)   XCENC  =       485.57576784
  PAW double counting   =      2689.20727064    -2819.12307877
  entropy T*S    EENTRO =        -0.00279529
  eigenvalues    EBANDS =     -1606.67059596
  atomic energy  EATOM  =      5474.79130437
  ---------------------------------------------------
  free energy    TOTEN  =      -295.66885600 eV

  energy without entropy =     -295.66606071  energy(sigma->0) =     -295.66745836


--------------------------------------------------------------------------------------------------------




----------------------------------------- Iteration    1(   5)  ---------------------------------------


     EDDAV:  cpu time 2018.23: real time 2038.05
       DOS:  cpu time    0.01: real time    0.01
    --------------------------------------------
      LOOP:  cpu time 2018.24: real time 2038.07

 eigenvalue-minimisations  : 41568
 total energy-change (2. order) :-0.1352588E+00  (-0.1350981E+00)
 number of electron     134.9999915 magnetization      -0.2870733
 augmentation part      134.9999915 magnetization      -0.2870733

 DIPCOR: dipole corrections for dipol
 direction  3 min pos    21,
 dipolmoment           0.000000      0.000000     -0.585315 electrons x Angstroem
 Tr[quadrupol]     -2317.746786

 energy correction for charged system         0.000000 eV
 dipol+quadrupol energy correction           -0.018356 eV
 added-field ion interaction        -14.139652 eV  (added to PSCEN)


 Free energy of the ion-electron system (eV)
  ---------------------------------------------------
  alpha Z        PSCENC =        41.43241275
  Ewald energy   TEWEN  =     21840.33001928
  -Hartree energ DENC   =    -26401.20916086
  -exchange      EXHF   =         0.00000000
  -V(xc)+E(xc)   XCENC  =       485.57576784
  PAW double counting   =      2689.20727064    -2819.12307877
  entropy T*S    EENTRO =        -0.00270969
  eigenvalues    EBANDS =     -1606.80594033
  atomic energy  EATOM  =      5474.79130437
  ---------------------------------------------------
  free energy    TOTEN  =      -295.80411477 eV

  energy without entropy =     -295.80140507  energy(sigma->0) =     -295.80275992


--------------------------------------------------------------------------------------------------------




----------------------------------------- Iteration    1(   6)  ---------------------------------------


    EDDIAG:  cpu time  363.22: real time  367.53
  RMM-DIIS:  cpu time 1375.56: real time 1377.50
    ORTHCH:  cpu time    8.35: real time   10.60
       DOS:  cpu time    0.01: real time    0.01
    --------------------------------------------
      LOOP:  cpu time 1747.13: real time 1755.66

 eigenvalue-minimisations  : 39896
 total energy-change (2. order) :-0.3116292E-02  (-0.3116281E-02)
 number of electron     134.9999915 magnetization      -0.2870733
 augmentation part      134.9999915 magnetization      -0.2870733

 DIPCOR: dipole corrections for dipol
 direction  3 min pos    21,
 dipolmoment           0.000000      0.000000     -0.585315 electrons x Angstroem
 Tr[quadrupol]     -2317.746786

 energy correction for charged system         0.000000 eV
 dipol+quadrupol energy correction           -0.018356 eV
 added-field ion interaction        -14.139652 eV  (added to PSCEN)


 Free energy of the ion-electron system (eV)
  ---------------------------------------------------
  alpha Z        PSCENC =        41.43241275
  Ewald energy   TEWEN  =     21840.33001928
  -Hartree energ DENC   =    -26401.20916086
  -exchange      EXHF   =         0.00000000
  -V(xc)+E(xc)   XCENC  =       485.57576784
  PAW double counting   =      2689.20727064    -2819.12307877
  entropy T*S    EENTRO =        -0.00270875
  eigenvalues    EBANDS =     -1606.80905756
  atomic energy  EATOM  =      5474.79130437
  ---------------------------------------------------
  free energy    TOTEN  =      -295.80723106 eV

  energy without entropy =     -295.80452231  energy(sigma->0) =     -295.80587669


--------------------------------------------------------------------------------------------------------




----------------------------------------- Iteration    1(   7)  ---------------------------------------


    EDDIAG:  cpu time  362.53: real time  366.93
  RMM-DIIS:  cpu time 1807.56: real time 1810.09
    ORTHCH:  cpu time    8.39: real time   10.59
       DOS:  cpu time    0.01: real time    0.01
    --------------------------------------------
      LOOP:  cpu time 2178.49: real time 2187.62

 eigenvalue-minimisations  : 53206
 total energy-change (2. order) : 0.7739377E-04  (-0.3418378E-03)
 number of electron     134.9999915 magnetization      -0.2870733
 augmentation part      134.9999915 magnetization      -0.2870733

 DIPCOR: dipole corrections for dipol
 direction  3 min pos    21,
 dipolmoment           0.000000      0.000000     -0.585315 electrons x Angstroem
 Tr[quadrupol]     -2317.746786

 energy correction for charged system         0.000000 eV
 dipol+quadrupol energy correction           -0.018356 eV
 added-field ion interaction        -14.139652 eV  (added to PSCEN)


 Free energy of the ion-electron system (eV)
  ---------------------------------------------------
  alpha Z        PSCENC =        41.43241275
  Ewald energy   TEWEN  =     21840.33001928
  -Hartree energ DENC   =    -26401.20916086
  -exchange      EXHF   =         0.00000000
  -V(xc)+E(xc)   XCENC  =       485.57576784
  PAW double counting   =      2689.20727064    -2819.12307877
  entropy T*S    EENTRO =        -0.00270858
  eigenvalues    EBANDS =     -1606.80898034
  atomic energy  EATOM  =      5474.79130437
  ---------------------------------------------------
  free energy    TOTEN  =      -295.80715367 eV

  energy without entropy =     -295.80444508  energy(sigma->0) =     -295.80579937


--------------------------------------------------------------------------------------------------------




----------------------------------------- Iteration    1(   8)  ---------------------------------------


    EDDIAG:  cpu time  362.75: real time  367.02
  RMM-DIIS:  cpu time 1689.84: real time 1692.20
    ORTHCH:  cpu time    8.43: real time   10.62
       DOS:  cpu time    0.01: real time    0.01
    --------------------------------------------
      LOOP:  cpu time 2061.03: real time 2069.88

 eigenvalue-minimisations  : 49954
 total energy-change (2. order) : 0.3730498E-05  (-0.1444459E-04)
 number of electron     134.9999915 magnetization      -0.2870733
 augmentation part      134.9999915 magnetization      -0.2870733

 DIPCOR: dipole corrections for dipol
 direction  3 min pos    21,
 dipolmoment           0.000000      0.000000     -0.585315 electrons x Angstroem
 Tr[quadrupol]     -2317.746786

 energy correction for charged system         0.000000 eV
 dipol+quadrupol energy correction           -0.018356 eV
 added-field ion interaction        -14.139652 eV  (added to PSCEN)


 Free energy of the ion-electron system (eV)
  ---------------------------------------------------
  alpha Z        PSCENC =        41.43241275
  Ewald energy   TEWEN  =     21840.33001928
  -Hartree energ DENC   =    -26401.20916086
  -exchange      EXHF   =         0.00000000
  -V(xc)+E(xc)   XCENC  =       485.57576784
  PAW double counting   =      2689.20727064    -2819.12307877
  entropy T*S    EENTRO =        -0.00270854
  eigenvalues    EBANDS =     -1606.80897665
  atomic energy  EATOM  =      5474.79130437
  ---------------------------------------------------
  free energy    TOTEN  =      -295.80714994 eV

  energy without entropy =     -295.80444140  energy(sigma->0) =     -295.80579567


--------------------------------------------------------------------------------------------------------




----------------------------------------- Iteration    1(   9)  ---------------------------------------


    EDDIAG:  cpu time  362.49: real time  366.88
  RMM-DIIS:  cpu time 1665.95: real time 1668.28
    ORTHCH:  cpu time    8.34: real time   10.61
       DOS:  cpu time    0.00: real time    0.01
    --------------------------------------------
      LOOP:  cpu time 2036.79: real time 2045.80

 eigenvalue-minimisations  : 47850
 total energy-change (2. order) :-0.7907838E-06  (-0.1252652E-05)
 number of electron     134.9999915 magnetization      -0.2870733
 augmentation part      134.9999915 magnetization      -0.2870733

 DIPCOR: dipole corrections for dipol
 direction  3 min pos    21,
 dipolmoment           0.000000      0.000000     -0.585315 electrons x Angstroem
 Tr[quadrupol]     -2317.746786

 energy correction for charged system         0.000000 eV
 dipol+quadrupol energy correction           -0.018356 eV
 added-field ion interaction        -14.139652 eV  (added to PSCEN)


 Free energy of the ion-electron system (eV)
  ---------------------------------------------------
  alpha Z        PSCENC =        41.43241275
  Ewald energy   TEWEN  =     21840.33001928
  -Hartree energ DENC   =    -26401.20916086
  -exchange      EXHF   =         0.00000000
  -V(xc)+E(xc)   XCENC  =       485.57576784
  PAW double counting   =      2689.20727064    -2819.12307877
  entropy T*S    EENTRO =        -0.00270855
  eigenvalues    EBANDS =     -1606.80897743
  atomic energy  EATOM  =      5474.79130437
  ---------------------------------------------------
  free energy    TOTEN  =      -295.80715073 eV

  energy without entropy =     -295.80444217  energy(sigma->0) =     -295.80579645


--------------------------------------------------------------------------------------------------------




----------------------------------------- Iteration    1(  10)  ---------------------------------------


    EDDIAG:  cpu time  362.34: real time  366.74
  RMM-DIIS:  cpu time 1419.24: real time 1421.23
    ORTHCH:  cpu time    8.39: real time   10.63
       DOS:  cpu time    0.00: real time    0.01
    --------------------------------------------
      LOOP:  cpu time 1789.98: real time 1798.64

 eigenvalue-minimisations  : 39588
 total energy-change (2. order) :-0.1138142E-07  (-0.8733679E-07)
 number of electron     134.9999915 magnetization      -0.2870733
 augmentation part      134.9999915 magnetization      -0.2870733

 DIPCOR: dipole corrections for dipol
 direction  3 min pos    21,
 dipolmoment           0.000000      0.000000     -0.585315 electrons x Angstroem
 Tr[quadrupol]     -2317.746786

 energy correction for charged system         0.000000 eV
 dipol+quadrupol energy correction           -0.018356 eV
 added-field ion interaction        -14.139652 eV  (added to PSCEN)


 Free energy of the ion-electron system (eV)
  ---------------------------------------------------
  alpha Z        PSCENC =        41.43241275
  Ewald energy   TEWEN  =     21840.33001928
  -Hartree energ DENC   =    -26401.20916086
  -exchange      EXHF   =         0.00000000
  -V(xc)+E(xc)   XCENC  =       485.57576784
  PAW double counting   =      2689.20727064    -2819.12307877
  entropy T*S    EENTRO =        -0.00270856
  eigenvalues    EBANDS =     -1606.80897743
  atomic energy  EATOM  =      5474.79130437
  ---------------------------------------------------
  free energy    TOTEN  =      -295.80715074 eV

  energy without entropy =     -295.80444218  energy(sigma->0) =     -295.80579646


--------------------------------------------------------------------------------------------------------




 average (electrostatic) potential at core
  the test charge radii are     0.6991  0.9254
  (the norm of the test charge is              1.0000)
       1 -57.4352       2 -57.4350       3 -57.3905       4 -57.3904       5 -57.4907
       6 -57.6568       7 -57.4906       8 -57.3905       9 -57.4352      10 -57.6570
      11 -57.6566      12 -57.4351      13 -57.3988      14 -57.4352      15 -57.4906
      16 -57.4352      17 -57.4353      18 -57.4905      19 -57.4352      20 -57.3987
      21 -57.4350      22 -57.6569      23 -57.6568      24 -57.4352      25 -57.3906
      26 -57.4907      27 -57.6568      28 -57.4905      29 -57.3905      30 -57.3904
      31 -57.4350      32 -57.4352      33 -53.9155
 
 
 
 E-fermi :  -1.3047     XC(G=0):  -2.3592     alpha+bet : -2.1104


 spin component 1

 k-point     1 :       0.0000    0.0000    0.0000
  band No.  band energies     occupation 
      1     -28.0936      1.00000
      2     -28.0935      1.00000
      3     -28.0864      1.00000
      4     -21.5900      1.00000
      5     -20.2259      1.00000
      6     -20.1478      1.00000
      7     -20.1477      1.00000
      8     -20.0688      1.00000
      9     -20.0687      1.00000
     10     -20.0410      1.00000
     11     -17.3284      1.00000
     12     -17.3283      1.00000
     13     -17.3018      1.00000
     14     -17.3018      1.00000
     15     -17.2902      1.00000
     16     -17.2591      1.00000
     17     -16.3450      1.00000
     18     -16.3449      1.00000
     19     -16.3355      1.00000
     20     -15.3013      1.00000
     21     -15.2883      1.00000
     22     -15.2883      1.00000
     23     -12.6160      1.00000
     24     -12.6160      1.00000
     25     -12.6059      1.00000
     26     -12.6059      1.00000
     27     -12.5668      1.00000
     28     -12.5607      1.00000
     29     -11.0610      1.00000
     30     -11.0536      1.00000
     31     -10.9883      1.00000
     32     -10.9883      1.00000
     33     -10.9817      1.00000
     34     -10.9816      1.00000
     35      -9.7861      1.00000
     36      -9.5087      1.00000
     37      -9.5087      1.00000
     38      -9.5070      1.00000
     39      -9.4808      1.00000
     40      -9.4807      1.00000
     41      -9.4559      1.00000
     42      -8.4710      1.00000
     43      -8.4709      1.00000
     44      -8.4642      1.00000
     45      -8.2304      1.00000
     46      -8.0885      1.00000
     47      -8.0882      1.00000
     48      -7.9477      1.00000
     49      -7.9476      1.00000
     50      -7.9117      1.00000
     51      -7.1254      1.00000
     52      -7.1196      1.00000
     53      -7.1196      1.00000
     54      -7.0899      1.00000
     55      -7.0898      1.00000
     56      -7.0683      1.00000
     57      -5.0949      1.00000
     58      -5.0948      1.00000
     59      -4.9916      1.00000
     60      -4.9914      1.00000
     61      -4.8786      1.00000
     62      -4.8783      1.00000
     63      -4.8449      1.00000
     64      -4.7924      1.00000
     65      -4.4669      1.00000
     66      -4.4638      1.00000
     67      -4.4638      1.00000
     68      -0.6605      0.00000
     69      -0.5072      0.00000
     70      -0.5071      0.00000
     71      -0.4757      0.00000
     72       0.6342      0.00000
     73       0.6345      0.00000
     74       0.6541      0.00000
     75       0.6542      0.00000
     76       0.7230      0.00000
     77       0.7596      0.00000
     78       1.2590      0.00000
     79       1.4151      0.00000
     80       1.6181      0.00000
     81       1.6203      0.00000
     82       1.7704      0.00000
     83       2.5156      0.00000
     84       2.5209      0.00000
     85       2.5212      0.00000
     86       2.7129      0.00000
     87       2.9669      0.00000
     88       3.3152      0.00000
     89       3.3194      0.00000
     90       3.3194      0.00000
     91       3.4051      0.00000
     92       3.4053      0.00000
     93       3.4320      0.00000
     94       3.5251      0.00000
     95       3.6010      0.00000
     96       3.6011      0.00000
     97       3.6958      0.00000
     98       3.6960      0.00000
     99       3.7277      0.00000
    100       4.3052      0.00000
    101       4.4050      0.00000
    102       4.4052      0.00000
    103       4.5681      0.00000
    104       4.5682      0.00000
    105       4.5846      0.00000
    106       4.6254      0.00000
    107       4.8967      0.00000
    108       5.0039      0.00000
    109       5.0585      0.00000
    110       5.0586      0.00000
    111       5.0781      0.00000
    112       5.0790      0.00000
    113       5.1804      0.00000
    114       5.1810      0.00000
    115       5.1976      0.00000
    116       5.1980      0.00000
    117       5.2123      0.00000
    118       5.2308      0.00000
    119       5.2353      0.00000
    120       5.2437      0.00000
    121       5.2441      0.00000
    122       5.3684      0.00000
    123       5.7175      0.00000
    124       5.7179      0.00000
    125       5.9012      0.00000
    126       5.9047      0.00000
    127       5.9115      0.00000
    128       5.9387      0.00000
    129       5.9463      0.00000
    130       5.9560      0.00000
    131       6.0160      0.00000
    132       6.0168      0.00000
    133       6.0245      0.00000
    134       6.3267      0.00000
    135       6.5032      0.00000
    136       6.5739      0.00000
    137       6.5745      0.00000
    138       6.7558      0.00000
    139       6.7570      0.00000
    140       6.7935      0.00000
    141       6.9852      0.00000
    142       7.1637      0.00000
    143       7.1963      0.00000
    144       7.4024      0.00000

 k-point     2 :       0.0833    0.0000    0.0000
  band No.  band energies     occupation 
      1     -28.0936      1.00000
      2     -28.0935      1.00000
      3     -28.0864      1.00000
      4     -21.5798      1.00000
      5     -20.3789      1.00000
      6     -20.2255      1.00000
      7     -20.2163      1.00000
      8     -20.0087      1.00000
      9     -19.9711      1.00000
     10     -19.8401      1.00000
     11     -17.6423      1.00000
     12     -17.6241      1.00000
     13     -17.2961      1.00000
     14     -17.2887      1.00000
     15     -16.9673      1.00000
     16     -16.9465      1.00000
     17     -16.5061      1.00000
     18     -16.3838      1.00000
     19     -16.3781      1.00000
     20     -15.2405      1.00000
     21     -15.2323      1.00000
     22     -15.1123      1.00000
     23     -12.9208      1.00000
     24     -12.9192      1.00000
     25     -12.6825      1.00000
     26     -12.6741      1.00000
     27     -12.3068      1.00000
     28     -12.3028      1.00000
     29     -11.2724      1.00000
     30     -11.2702      1.00000
     31     -10.9242      1.00000
     32     -10.9238      1.00000
     33     -10.6910      1.00000
     34     -10.6851      1.00000
     35     -10.0426      1.00000
     36      -9.7764      1.00000
     37      -9.7699      1.00000
     38      -9.7571      1.00000
     39      -9.2223      1.00000
     40      -9.2147      1.00000
     41      -8.9444      1.00000
     42      -8.5034      1.00000
     43      -8.4989      1.00000
     44      -8.4583      1.00000
     45      -8.3772      1.00000
     46      -8.1632      1.00000
     47      -8.1380      1.00000
     48      -7.9292      1.00000
     49      -7.8501      1.00000
     50      -7.6900      1.00000
     51      -7.3102      1.00000
     52      -7.2412      1.00000
     53      -7.2295      1.00000
     54      -7.0300      1.00000
     55      -7.0284      1.00000
     56      -6.8870      1.00000
     57      -5.2763      1.00000
     58      -5.2335      1.00000
     59      -5.1375      1.00000
     60      -5.1168      1.00000
     61      -4.9197      1.00000
     62      -4.8616      1.00000
     63      -4.6336      1.00000
     64      -4.5280      1.00000
     65      -4.5000      1.00000
     66      -4.4412      1.00000
     67      -4.4370      1.00000
     68      -0.6546      0.00000
     69      -0.4892      0.00000
     70      -0.4724      0.00000
     71      -0.4127      0.00000
     72       0.2637      0.00000
     73       0.2766      0.00000
     74       0.6541      0.00000
     75       0.6552      0.00000
     76       1.0765      0.00000
     77       1.0991      0.00000
     78       1.2474      0.00000
     79       1.3778      0.00000
     80       1.6023      0.00000
     81       1.6133      0.00000
     82       1.8526      0.00000
     83       2.3999      0.00000
     84       2.5291      0.00000
     85       2.5622      0.00000
     86       2.8901      0.00000
     87       2.9418      0.00000
     88       3.0687      0.00000
     89       3.2027      0.00000
     90       3.2319      0.00000
     91       3.3110      0.00000
     92       3.4915      0.00000
     93       3.4954      0.00000
     94       3.5390      0.00000
     95       3.5508      0.00000
     96       3.7279      0.00000
     97       3.7887      0.00000
     98       3.8305      0.00000
     99       3.9935      0.00000
    100       4.1327      0.00000
    101       4.3235      0.00000
    102       4.3598      0.00000
    103       4.4604      0.00000
    104       4.5072      0.00000
    105       4.6336      0.00000
    106       4.6492      0.00000
    107       4.7902      0.00000
    108       4.8789      0.00000
    109       4.8910      0.00000
    110       4.9594      0.00000
    111       4.9663      0.00000
    112       4.9675      0.00000
    113       5.1687      0.00000
    114       5.2302      0.00000
    115       5.2700      0.00000
    116       5.2797      0.00000
    117       5.3222      0.00000
    118       5.3583      0.00000
    119       5.3992      0.00000
    120       5.4022      0.00000
    121       5.4338      0.00000
    122       5.5034      0.00000
    123       5.5258      0.00000
    124       5.6862      0.00000
    125       5.8480      0.00000
    126       5.9219      0.00000
    127       5.9339      0.00000
    128       5.9704      0.00000
    129       5.9830      0.00000
    130       6.0131      0.00000
    131       6.0178      0.00000
    132       6.0364      0.00000
    133       6.2085      0.00000
    134       6.4320      0.00000
    135       6.4923      0.00000
    136       6.5625      0.00000
    137       6.6041      0.00000
    138       6.7571      0.00000
    139       6.8345      0.00000
    140       6.8614      0.00000
    141       6.9492      0.00000
    142       6.9673      0.00000
    143       7.0513      0.00000
    144       7.0813      0.00000

 k-point     3 :       0.1667    0.0000    0.0000
  band No.  band energies     occupation 
      1     -28.0936      1.00000
      2     -28.0935      1.00000
      3     -28.0864      1.00000
      4     -21.5495      1.00000
      5     -20.5769      1.00000
      6     -20.3156      1.00000
      7     -20.3133      1.00000
      8     -19.8532      1.00000
      9     -19.8236      1.00000
     10     -19.5803      1.00000
     11     -17.9577      1.00000
     12     -17.9385      1.00000
     13     -17.2688      1.00000
     14     -17.2609      1.00000
     15     -16.8470      1.00000
     16     -16.6100      1.00000
     17     -16.5948      1.00000
     18     -16.4785      1.00000
     19     -16.4749      1.00000
     20     -15.0905      1.00000
     21     -15.0837      1.00000
     22     -14.7301      1.00000
     23     -13.2747      1.00000
     24     -13.2700      1.00000
     25     -12.8940      1.00000
     26     -12.8865      1.00000
     27     -12.0462      1.00000
     28     -12.0396      1.00000
     29     -11.4709      1.00000
     30     -11.4705      1.00000
     31     -10.7048      1.00000
     32     -10.7043      1.00000
     33     -10.5946      1.00000
     34     -10.3309      1.00000
     35     -10.3228      1.00000
     36     -10.0431      1.00000
     37     -10.0335      1.00000
     38      -9.7382      1.00000
     39      -8.9592      1.00000
     40      -8.9510      1.00000
     41      -8.6056      1.00000
     42      -8.5939      1.00000
     43      -8.5860      1.00000
     44      -8.4283      1.00000
     45      -8.4099      1.00000
     46      -8.2607      1.00000
     47      -8.2592      1.00000
     48      -7.7514      1.00000
     49      -7.6846      1.00000
     50      -7.5010      1.00000
     51      -7.4380      1.00000
     52      -7.4245      1.00000
     53      -7.4008      1.00000
     54      -7.0142      1.00000
     55      -7.0116      1.00000
     56      -6.6696      1.00000
     57      -5.6135      1.00000
     58      -5.5680      1.00000
     59      -5.2641      1.00000
     60      -5.1834      1.00000
     61      -4.9091      1.00000
     62      -4.8449      1.00000
     63      -4.7497      1.00000
     64      -4.5145      1.00000
     65      -4.5022      1.00000
     66      -4.1606      1.00000
     67      -4.1315      1.00000
     68      -0.6396      0.00000
     69      -0.4388      0.00000
     70      -0.4213      0.00000
     71      -0.2321      0.00000
     72      -0.1141      0.00000
     73      -0.0757      0.00000
     74       0.5935      0.00000
     75       0.5944      0.00000
     76       1.1648      0.00000
     77       1.3736      0.00000
     78       1.4809      0.00000
     79       1.5000      0.00000
     80       1.5635      0.00000
     81       1.6376      0.00000
     82       1.9600      0.00000
     83       2.3139      0.00000
     84       2.5575      0.00000
     85       2.6747      0.00000
     86       2.7484      0.00000
     87       2.9426      0.00000
     88       3.0721      0.00000
     89       3.0811      0.00000
     90       3.1470      0.00000
     91       3.1846      0.00000
     92       3.3737      0.00000
     93       3.3789      0.00000
     94       3.7424      0.00000
     95       3.7577      0.00000
     96       3.8660      0.00000
     97       3.8956      0.00000
     98       3.9836      0.00000
     99       4.0198      0.00000
    100       4.1025      0.00000
    101       4.2129      0.00000
    102       4.2382      0.00000
    103       4.3583      0.00000
    104       4.4277      0.00000
    105       4.4840      0.00000
    106       4.4864      0.00000
    107       4.6494      0.00000
    108       4.8359      0.00000
    109       4.8604      0.00000
    110       4.9042      0.00000
    111       4.9470      0.00000
    112       5.0384      0.00000
    113       5.1492      0.00000
    114       5.2470      0.00000
    115       5.2877      0.00000
    116       5.3017      0.00000
    117       5.4164      0.00000
    118       5.4222      0.00000
    119       5.5195      0.00000
    120       5.5390      0.00000
    121       5.5968      0.00000
    122       5.6247      0.00000
    123       5.7049      0.00000
    124       5.9086      0.00000
    125       5.9288      0.00000
    126       5.9628      0.00000
    127       6.0274      0.00000
    128       6.0324      0.00000
    129       6.0618      0.00000
    130       6.1163      0.00000
    131       6.1719      0.00000
    132       6.1850      0.00000
    133       6.3495      0.00000
    134       6.3737      0.00000
    135       6.4825      0.00000
    136       6.4975      0.00000
    137       6.5520      0.00000
    138       6.6789      0.00000
    139       6.7299      0.00000
    140       6.7902      0.00000
    141       6.8820      0.00000
    142       6.9572      0.00000
    143       6.9827      0.00000
    144       7.0420      0.00000

 k-point     4 :       0.2500    0.0000    0.0000
  band No.  band energies     occupation 
      1     -28.0936      1.00000
      2     -28.0936      1.00000
      3     -28.0864      1.00000
      4     -21.4992      1.00000
      5     -20.7636      1.00000
      6     -20.3898      1.00000
      7     -20.3831      1.00000
      8     -19.6804      1.00000
      9     -19.6544      1.00000
     10     -19.2956      1.00000
     11     -18.2570      1.00000
     12     -18.2373      1.00000
     13     -17.2238      1.00000
     14     -17.2211      1.00000
     15     -17.2149      1.00000
     16     -16.6061      1.00000
     17     -16.6043      1.00000
     18     -16.2457      1.00000
     19     -16.2288      1.00000
     20     -14.8812      1.00000
     21     -14.8756      1.00000
     22     -14.2782      1.00000
     23     -13.6474      1.00000
     24     -13.6406      1.00000
     25     -13.1687      1.00000
     26     -13.1620      1.00000
     27     -11.8040      1.00000
     28     -11.7954      1.00000
     29     -11.6152      1.00000
     30     -11.6135      1.00000
     31     -11.1460      1.00000
     32     -10.4190      1.00000
     33     -10.4188      1.00000
     34     -10.3112      1.00000
     35     -10.3024      1.00000
     36      -9.9396      1.00000
     37      -9.9300      1.00000
     38      -9.6796      1.00000
     39      -8.8064      1.00000
     40      -8.7509      1.00000
     41      -8.7470      1.00000
     42      -8.7144      1.00000
     43      -8.7036      1.00000
     44      -8.3793      1.00000
     45      -8.3496      1.00000
     46      -8.3388      1.00000
     47      -7.8917      1.00000
     48      -7.6995      1.00000
     49      -7.6920      1.00000
     50      -7.6560      1.00000
     51      -7.5499      1.00000
     52      -7.4913      1.00000
     53      -7.0857      1.00000
     54      -7.0449      1.00000
     55      -7.0432      1.00000
     56      -6.4473      1.00000
     57      -5.9410      1.00000
     58      -5.8946      1.00000
     59      -5.4695      1.00000
     60      -5.2902      1.00000
     61      -5.0149      1.00000
     62      -4.8897      1.00000
     63      -4.8179      1.00000
     64      -4.5469      1.00000
     65      -4.5276      1.00000
     66      -3.8222      1.00000
     67      -3.7872      1.00000
     68      -0.6195      0.00000
     69      -0.5453      0.00000
     70      -0.5119      0.00000
     71      -0.3321      0.00000
     72      -0.3081      0.00000
     73       0.1849      0.00000
     74       0.4966      0.00000
     75       0.5010      0.00000
     76       1.0469      0.00000
     77       1.4321      0.00000
     78       1.5152      0.00000
     79       1.6865      0.00000
     80       1.8812      0.00000
     81       1.9013      0.00000
     82       1.9618      0.00000
     83       2.3894      0.00000
     84       2.4431      0.00000
     85       2.6908      0.00000
     86       2.7454      0.00000
     87       2.8284      0.00000
     88       2.9718      0.00000
     89       2.9969      0.00000
     90       3.1423      0.00000
     91       3.2849      0.00000
     92       3.2869      0.00000
     93       3.3111      0.00000
     94       3.5576      0.00000
     95       3.6268      0.00000
     96       3.9608      0.00000
     97       3.9828      0.00000
     98       4.0817      0.00000
     99       4.0873      0.00000
    100       4.1223      0.00000
    101       4.1243      0.00000
    102       4.1816      0.00000
    103       4.3106      0.00000
    104       4.3431      0.00000
    105       4.4629      0.00000
    106       4.5508      0.00000
    107       4.6887      0.00000
    108       4.7477      0.00000
    109       4.7654      0.00000
    110       4.8056      0.00000
    111       4.8410      0.00000
    112       5.1580      0.00000
    113       5.1864      0.00000
    114       5.2721      0.00000
    115       5.3540      0.00000
    116       5.6450      0.00000
    117       5.6476      0.00000
    118       5.6574      0.00000
    119       5.6732      0.00000
    120       5.7205      0.00000
    121       5.7473      0.00000
    122       5.7615      0.00000
    123       5.7895      0.00000
    124       5.8158      0.00000
    125       5.9875      0.00000
    126       6.0260      0.00000
    127       6.0541      0.00000
    128       6.0722      0.00000
    129       6.1112      0.00000
    130       6.1671      0.00000
    131       6.2011      0.00000
    132       6.2084      0.00000
    133       6.2682      0.00000
    134       6.2925      0.00000
    135       6.3099      0.00000
    136       6.3213      0.00000
    137       6.4069      0.00000
    138       6.4494      0.00000
    139       6.4770      0.00000
    140       6.5209      0.00000
    141       6.9388      0.00000
    142       7.0046      0.00000
    143       7.0804      0.00000
    144       7.1176      0.00000

 k-point     5 :       0.3333    0.0000    0.0000
  band No.  band energies     occupation 
      1     -28.0936      1.00000
      2     -28.0936      1.00000
      3     -28.0864      1.00000
      4     -21.4295      1.00000
      5     -20.9321      1.00000
      6     -20.4420      1.00000
      7     -20.4333      1.00000
      8     -19.4893      1.00000
      9     -19.4654      1.00000
     10     -18.9907      1.00000
     11     -18.5395      1.00000
     12     -18.5191      1.00000
     13     -17.5995      1.00000
     14     -17.1622      1.00000
     15     -17.1513      1.00000
     16     -16.7332      1.00000
     17     -16.7324      1.00000
     18     -15.8882      1.00000
     19     -15.8714      1.00000
     20     -14.6348      1.00000
     21     -14.6301      1.00000
     22     -14.0230      1.00000
     23     -14.0117      1.00000
     24     -13.7909      1.00000
     25     -13.4682      1.00000
     26     -13.4618      1.00000
     27     -11.7251      1.00000
     28     -11.7246      1.00000
     29     -11.6880      1.00000
     30     -11.5559      1.00000
     31     -11.5484      1.00000
     32     -10.5757      1.00000
     33     -10.5660      1.00000
     34     -10.1070      1.00000
     35     -10.1057      1.00000
     36      -9.6012      1.00000
     37      -9.5318      1.00000
     38      -9.5229      1.00000
     39      -8.9986      1.00000
     40      -8.9526      1.00000
     41      -8.9506      1.00000
     42      -8.5037      1.00000
     43      -8.4938      1.00000
     44      -8.4125      1.00000
     45      -8.3988      1.00000
     46      -8.3065      1.00000
     47      -7.9949      1.00000
     48      -7.9896      1.00000
     49      -7.8296      1.00000
     50      -7.3988      1.00000
     51      -7.3296      1.00000
     52      -7.2760      1.00000
     53      -7.1049      1.00000
     54      -7.1022      1.00000
     55      -6.7504      1.00000
     56      -6.2540      1.00000
     57      -6.2250      1.00000
     58      -6.2066      1.00000
     59      -5.7460      1.00000
     60      -5.4319      1.00000
     61      -5.3350      1.00000
     62      -4.8667      1.00000
     63      -4.7822      1.00000
     64      -4.5898      1.00000
     65      -4.5578      1.00000
     66      -3.5105      1.00000
     67      -3.4738      1.00000
     68      -0.8691      0.00000
     69      -0.8376      0.00000
     70      -0.5983      0.00000
     71      -0.2326      0.00000
     72      -0.2005      0.00000
     73       0.3717      0.00000
     74       0.3841      0.00000
     75       0.6128      0.00000
     76       0.9453      0.00000
     77       1.4751      0.00000
     78       1.5240      0.00000
     79       1.7349      0.00000
     80       1.9410      0.00000
     81       2.2137      0.00000
     82       2.2762      0.00000
     83       2.2948      0.00000
     84       2.4963      0.00000
     85       2.5736      0.00000
     86       2.7403      0.00000
     87       2.8139      0.00000
     88       2.8836      0.00000
     89       2.9340      0.00000
     90       3.0544      0.00000
     91       3.1386      0.00000
     92       3.2476      0.00000
     93       3.3068      0.00000
     94       3.4054      0.00000
     95       3.7743      0.00000
     96       3.7913      0.00000
     97       3.9000      0.00000
     98       3.9241      0.00000
     99       4.0133      0.00000
    100       4.0789      0.00000
    101       4.1630      0.00000
    102       4.2779      0.00000
    103       4.3000      0.00000
    104       4.4163      0.00000
    105       4.4842      0.00000
    106       4.5543      0.00000
    107       4.6533      0.00000
    108       4.6904      0.00000
    109       4.8708      0.00000
    110       4.9642      0.00000
    111       5.1970      0.00000
    112       5.3021      0.00000
    113       5.3924      0.00000
    114       5.4028      0.00000
    115       5.4441      0.00000
    116       5.5511      0.00000
    117       5.5961      0.00000
    118       5.6314      0.00000
    119       5.6499      0.00000
    120       5.7084      0.00000
    121       5.8506      0.00000
    122       5.9114      0.00000
    123       5.9194      0.00000
    124       5.9245      0.00000
    125       5.9642      0.00000
    126       5.9816      0.00000
    127       5.9826      0.00000
    128       6.0083      0.00000
    129       6.0851      0.00000
    130       6.0884      0.00000
    131       6.1184      0.00000
    132       6.2218      0.00000
    133       6.2612      0.00000
    134       6.2799      0.00000
    135       6.3272      0.00000
    136       6.3713      0.00000
    137       6.4667      0.00000
    138       6.4791      0.00000
    139       6.7004      0.00000
    140       6.7334      0.00000
    141       6.7349      0.00000
    142       6.7550      0.00000
    143       6.7737      0.00000
    144       7.0029      0.00000

 k-point     6 :       0.4167    0.0000    0.0000
  band No.  band energies     occupation 
      1     -28.0936      1.00000
      2     -28.0936      1.00000
      3     -28.0864      1.00000
      4     -21.3428      1.00000
      5     -21.0784      1.00000
      6     -20.4731      1.00000
      7     -20.4634      1.00000
      8     -19.2795      1.00000
      9     -19.2569      1.00000
     10     -18.8043      1.00000
     11     -18.7833      1.00000
     12     -18.6672      1.00000
     13     -17.9694      1.00000
     14     -17.0879      1.00000
     15     -17.0714      1.00000
     16     -16.8554      1.00000
     17     -16.8486      1.00000
     18     -15.5668      1.00000
     19     -15.5499      1.00000
     20     -14.3637      1.00000
     21     -14.3601      1.00000
     22     -14.3542      1.00000
     23     -14.3438      1.00000
     24     -13.7735      1.00000
     25     -13.7666      1.00000
     26     -13.2872      1.00000
     27     -12.2353      1.00000
     28     -11.7788      1.00000
     29     -11.7730      1.00000
     30     -11.3212      1.00000
     31     -11.3123      1.00000
     32     -10.8312      1.00000
     33     -10.8218      1.00000
     34      -9.7932      1.00000
     35      -9.7926      1.00000
     36      -9.5048      1.00000
     37      -9.2208      1.00000
     38      -9.2085      1.00000
     39      -9.1583      1.00000
     40      -9.1062      1.00000
     41      -9.1017      1.00000
[...]
    138       6.5178      0.00000
    139       6.6973      0.00000
    140       6.7230      0.00000
    141       6.7393      0.00000
    142       6.7996      0.00000
    143       6.8285      0.00000
    144       6.8841      0.00000

 k-point    50 :       0.3889    0.3889    0.0000
  band No.  band energies     occupation 
      1     -28.1185      1.00000
      2     -28.1185      1.00000
      3     -28.1157      1.00000
      4     -21.2256      1.00000
      5     -21.1151      1.00000
      6     -20.9034      1.00000
      7     -19.9433      1.00000
      8     -19.4682      1.00000
      9     -19.4593      1.00000
     10     -18.5250      1.00000
     11     -18.5174      1.00000
     12     -18.2840      1.00000
     13     -18.2583      1.00000
     14     -17.8601      1.00000
     15     -17.7745      1.00000
     16     -16.1885      1.00000
     17     -16.1160      1.00000
     18     -15.7730      1.00000
     19     -14.9320      1.00000
     20     -14.7930      1.00000
     21     -14.7870      1.00000
     22     -14.7509      1.00000
     23     -14.4695      1.00000
     24     -13.1947      1.00000
     25     -13.1628      1.00000
     26     -12.7378      1.00000
     27     -12.7331      1.00000
     28     -12.5078      1.00000
     29     -12.1501      1.00000
     30     -12.1450      1.00000
     31     -10.7976      1.00000
     32     -10.1541      1.00000
     33     -10.1467      1.00000
     34     -10.0413      1.00000
     35     -10.0239      1.00000
     36      -9.3941      1.00000
     37      -9.3214      1.00000
     38      -9.1845      1.00000
     39      -8.9457      1.00000
     40      -8.9292      1.00000
     41      -8.9093      1.00000
     42      -8.6652      1.00000
     43      -8.6627      1.00000
     44      -8.6338      1.00000
     45      -8.6316      1.00000
     46      -8.3734      1.00000
     47      -8.3136      1.00000
     48      -8.0358      1.00000
     49      -7.8330      1.00000
     50      -7.2885      1.00000
     51      -7.2772      1.00000
     52      -7.2685      1.00000
     53      -6.6439      1.00000
     54      -6.5692      1.00000
     55      -6.4347      1.00000
     56      -6.2549      1.00000
     57      -6.2517      1.00000
     58      -6.0042      1.00000
     59      -5.9796      1.00000
     60      -5.9365      1.00000
     61      -5.9316      1.00000
     62      -5.5790      1.00000
     63      -5.4328      1.00000
     64      -4.1201      1.00000
     65      -4.0198      1.00000
     66      -3.6825      1.00000
     67      -2.5139      1.00000
     68      -1.7806      1.00000
     69      -1.2458      0.00043
     70      -0.8296      0.00000
     71      -0.6191      0.00000
     72      -0.5314      0.00000
     73       0.5455      0.00000
     74       0.7392      0.00000
     75       0.9668      0.00000
     76       1.0832      0.00000
     77       1.1648      0.00000
     78       1.5434      0.00000
     79       1.5818      0.00000
     80       1.6466      0.00000
     81       1.7621      0.00000
     82       1.8929      0.00000
     83       2.0467      0.00000
     84       2.0757      0.00000
     85       2.0982      0.00000
     86       2.1028      0.00000
     87       2.3799      0.00000
     88       2.4715      0.00000
     89       2.5848      0.00000
     90       2.7349      0.00000
     91       2.9306      0.00000
     92       3.1010      0.00000
     93       3.2065      0.00000
     94       3.2840      0.00000
     95       3.5203      0.00000
     96       3.6681      0.00000
     97       3.7128      0.00000
     98       3.7788      0.00000
     99       3.8765      0.00000
    100       3.8906      0.00000
    101       3.9013      0.00000
    102       3.9166      0.00000
    103       3.9395      0.00000
    104       4.3412      0.00000
    105       4.4140      0.00000
    106       4.4795      0.00000
    107       4.6133      0.00000
    108       4.6960      0.00000
    109       4.7242      0.00000
    110       4.7804      0.00000
    111       4.8500      0.00000
    112       4.9702      0.00000
    113       5.0992      0.00000
    114       5.1646      0.00000
    115       5.1802      0.00000
    116       5.1998      0.00000
    117       5.2333      0.00000
    118       5.3136      0.00000
    119       5.4460      0.00000
    120       5.4907      0.00000
    121       5.5841      0.00000
    122       5.5909      0.00000
    123       5.6624      0.00000
    124       5.7329      0.00000
    125       5.7809      0.00000
    126       5.8008      0.00000
    127       5.8231      0.00000
    128       5.8292      0.00000
    129       5.8708      0.00000
    130       6.0292      0.00000
    131       6.1040      0.00000
    132       6.1611      0.00000
    133       6.1668      0.00000
    134       6.2808      0.00000
    135       6.3186      0.00000
    136       6.4090      0.00000
    137       6.4683      0.00000
    138       6.4789      0.00000
    139       6.4914      0.00000
    140       6.5657      0.00000
    141       6.6284      0.00000
    142       6.7421      0.00000
    143       6.8368      0.00000
    144       6.8616      0.00000


--------------------------------------------------------------------------------------------------------


 soft charge-density along one line, spin component           1
         0         1         2         3         4         5         6         7         8         9
 total charge-density along one line
 
 soft charge-density along one line, spin component           2
         0         1         2         3         4         5         6         7         8         9
 total charge-density along one line
 
 pseudopotential strength for first ion, spin component:           1
 10.183   0.018   0.000   0.000   0.000  -0.000  -0.000  -0.000
  0.018  -0.002  -0.000  -0.000  -0.000  -0.000  -0.000  -0.000
  0.000  -0.000  -4.303  -0.000  -0.000  -0.018   0.000  -0.000
  0.000  -0.000  -0.000  -4.296   0.000   0.000  -0.014   0.000
  0.000  -0.000  -0.000   0.000  -4.303  -0.000   0.000  -0.018
 -0.000  -0.000  -0.018   0.000  -0.000  -0.771  -0.000  -0.000
 -0.000  -0.000   0.000  -0.014   0.000  -0.000  -0.771  -0.000
 -0.000  -0.000  -0.000   0.000  -0.018  -0.000  -0.000  -0.771
 pseudopotential strength for first ion, spin component:           2
 10.183   0.018   0.000   0.000   0.000  -0.000  -0.000  -0.000
  0.018  -0.002  -0.000  -0.000  -0.000  -0.000  -0.000  -0.000
  0.000  -0.000  -4.303  -0.000  -0.000  -0.018   0.000  -0.000
  0.000  -0.000  -0.000  -4.296   0.000   0.000  -0.014   0.000
  0.000  -0.000  -0.000   0.000  -4.303  -0.000   0.000  -0.018
 -0.000  -0.000  -0.018   0.000  -0.000  -0.771  -0.000  -0.000
 -0.000  -0.000   0.000  -0.014   0.000  -0.000  -0.771  -0.000
 -0.000  -0.000  -0.000   0.000  -0.018  -0.000  -0.000  -0.771
 total augmentation occupancy for first ion, spin component:           1
  2.000   0.000   0.000   0.000   0.000   0.000   0.000   0.000
  0.000   0.000   0.000   0.000   0.000   0.000   0.000   0.000
  0.000   0.000   0.667   0.000   0.000   0.000   0.000   0.000
  0.000   0.000   0.000   0.667   0.000   0.000   0.000   0.000
  0.000   0.000   0.000   0.000   0.667   0.000   0.000   0.000
  0.000   0.000   0.000   0.000   0.000   0.000   0.000   0.000
  0.000   0.000   0.000   0.000   0.000   0.000   0.000   0.000
  0.000   0.000   0.000   0.000   0.000   0.000   0.000   0.000
 total augmentation occupancy for first ion, spin component:           2
  0.500   0.000   0.000   0.000   0.000   0.000   0.000   0.000
  0.000   0.000   0.000   0.000   0.000   0.000   0.000   0.000
  0.000   0.000   0.167   0.000   0.000   0.000   0.000   0.000
  0.000   0.000   0.000   0.167   0.000   0.000   0.000   0.000
  0.000   0.000   0.000   0.000   0.167   0.000   0.000   0.000
  0.000   0.000   0.000   0.000   0.000   0.000   0.000   0.000
  0.000   0.000   0.000   0.000   0.000   0.000   0.000   0.000
  0.000   0.000   0.000   0.000   0.000   0.000   0.000   0.000


------------------------ aborting loop because EDIFF is reached ----------------------------------------


    CHARGE:  cpu time   81.91: real time   82.15
    FORLOC:  cpu time    0.03: real time    0.03
    FORNL :  cpu time  472.82: real time  473.40
    STRESS:  cpu time 1415.61: real time 1417.41
    FORCOR:  cpu time    0.40: real time    0.40
    FORHAR:  cpu time    0.08: real time    0.08
    OFIELD:  cpu time    0.00: real time    0.00

  FORCE on cell =-STRESS in cart. coord.  units (eV):
  Direction    XX          YY          ZZ          XY          YZ          ZX
  --------------------------------------------------------------------------------------
  Alpha Z    55.59042    55.59042    55.59042
  Ewald   26221.75407 26221.61439-30603.04900    -0.06816     0.02345    -0.04669
  Hartree 26005.72210 26005.68071-25557.00811    -0.03767     0.01295    -0.02595
  E(xc)    -505.22959  -505.22991  -523.48698    -0.00022     0.00002    -0.00005
  Local  -53641.14296-53641.60237 54477.03185     0.50402    -0.03605     0.07180
  n-local  -137.89218  -137.97243  -131.31501     0.05529    -0.00037     0.00000
  augment    29.46186    29.46426    30.68592    -0.00227    -0.00001    -0.00004
  Kinetic  1976.25145  1976.18882  2257.06253    -0.29779    -0.00032     0.00055
  Fock        0.00000     0.00000     0.00000     0.00000     0.00000     0.00000
  -------------------------------------------------------------------------------------
  Total       4.51516     3.73388     5.51163     0.15321    -0.00034    -0.00039
  in kB       4.28367     3.54245     5.22905     0.14536    -0.00032    -0.00037
  external pressure =        4.35 kB  Pullay stress =        0.00 kB


 VOLUME and BASIS-vectors are now :
 -----------------------------------------------------------------------------
  energy-cutoff  :      500.00
  volume of cell :     1688.76
      direct lattice vectors                 reciprocal lattice vectors
     9.874235153  0.000000000  0.000000000     0.101273667  0.058470379  0.000000000
    -4.937117577  8.551338486  0.000000000     0.000000000  0.116940757  0.000000000
     0.000000000  0.000000000 20.000000000     0.000000000  0.000000000  0.050000000

  length of vectors
     9.874235153  9.874235153 20.000000000     0.116940757  0.116940757  0.050000000


 FORCES acting on ions
    electron-ion (+dipol)            ewald-force                    non-local-force                 convergence-correction
 -----------------------------------------------------------------------------------------------
   0.267E+01 0.805E+01 0.144E+02   -.285E+01 -.834E+01 -.150E+02   0.616E-01 0.115E+00 0.137E+00   0.810E-01 0.141E+00 0.466E+00
   -.274E+01 0.806E+01 0.146E+02   0.285E+01 -.834E+01 -.152E+02   -.117E+00 0.118E+00 0.136E+00   -.213E-01 0.138E+00 0.467E+00
   -.165E+01 -.969E+00 0.119E+02   0.178E+01 0.103E+01 -.124E+02   -.758E-01 -.479E-01 0.123E+00   -.565E-01 -.297E-01 0.412E+00
   0.171E+01 -.987E+00 0.110E+02   -.178E+01 0.103E+01 -.115E+02   0.252E-01 -.509E-01 0.867E-01   0.601E-02 -.214E-01 0.414E+00
   0.139E+02 0.801E+01 0.221E+02   -.145E+02 -.836E+01 -.229E+02   0.342E+00 0.193E+00 0.239E+00   0.190E+00 0.116E+00 0.555E+00
   -.274E-01 0.230E+02 0.521E+02   0.188E-02 -.238E+02 -.539E+02   -.271E-01 0.529E+00 0.105E+01   0.260E-01 0.179E+00 0.742E+00
   -.139E+02 0.806E+01 0.203E+02   0.145E+02 -.837E+01 -.211E+02   -.397E+00 0.192E+00 0.181E+00   -.187E+00 0.817E-01 0.557E+00
   0.131E-01 0.195E+01 0.109E+02   0.117E-02 -.206E+01 -.114E+02   -.280E-01 0.408E-01 0.890E-01   -.178E-01 0.243E-01 0.413E+00
   0.833E+01 -.173E+01 0.144E+02   -.865E+01 0.170E+01 -.150E+02   0.134E+00 -.104E-01 0.129E+00   0.153E+00 0.719E-03 0.465E+00
   0.200E+02 -.116E+02 0.518E+02   -.206E+02 0.119E+02 -.536E+02   0.448E+00 -.294E+00 0.104E+01   0.169E+00 -.648E-01 0.743E+00
   -.199E+02 -.115E+02 0.521E+02   0.206E+02 0.119E+02 -.539E+02   -.500E+00 -.293E+00 0.104E+01   -.189E+00 -.106E+00 0.743E+00
   -.837E+01 -.169E+01 0.146E+02   0.865E+01 0.170E+01 -.152E+02   -.190E+00 -.101E-01 0.137E+00   -.121E+00 -.394E-01 0.464E+00
   -.246E-01 -.312E-01 0.112E+02   -.910E-03 0.832E-03 -.117E+02   -.247E-01 -.180E-01 0.107E+00   0.288E-01 0.217E-01 0.395E+00
   0.562E+01 -.644E+01 0.144E+02   -.580E+01 0.664E+01 -.150E+02   0.471E-01 -.167E+00 0.129E+00   0.106E+00 -.731E-01 0.464E+00
   0.255E-01 -.161E+02 0.221E+02   -.137E-02 0.167E+02 -.229E+02   -.279E-01 -.446E+00 0.239E+00   -.281E-01 -.194E+00 0.553E+00
   -.564E+01 -.643E+01 0.144E+02   0.580E+01 0.664E+01 -.150E+02   -.100E+00 -.166E+00 0.137E+00   -.982E-01 -.792E-01 0.465E+00
   0.564E+01 0.643E+01 0.144E+02   -.580E+01 -.664E+01 -.150E+02   0.101E+00 0.166E+00 0.140E+00   0.971E-01 0.781E-01 0.467E+00
   -.238E-01 0.161E+02 0.222E+02   -.194E-02 -.167E+02 -.230E+02   0.276E-01 0.446E+00 0.235E+00   0.293E-01 0.194E+00 0.555E+00
   -.563E+01 0.644E+01 0.142E+02   0.580E+01 -.664E+01 -.148E+02   -.475E-01 0.166E+00 0.142E+00   -.107E+00 0.755E-01 0.468E+00
   0.241E-01 0.293E-01 0.111E+02   0.702E-03 0.440E-03 -.116E+02   0.246E-01 0.178E-01 0.115E+00   -.281E-01 -.208E-01 0.398E+00
   0.838E+01 0.169E+01 0.143E+02   -.865E+01 -.171E+01 -.149E+02   0.190E+00 0.102E-01 0.134E+00   0.119E+00 0.381E-01 0.465E+00
   0.199E+02 0.115E+02 0.519E+02   -.206E+02 -.119E+02 -.537E+02   0.500E+00 0.293E+00 0.104E+01   0.191E+00 0.105E+00 0.743E+00
   -.200E+02 0.116E+02 0.518E+02   0.206E+02 -.119E+02 -.536E+02   -.448E+00 0.294E+00 0.105E+01   -.168E+00 0.653E-01 0.744E+00
   -.833E+01 0.174E+01 0.141E+02   0.866E+01 -.170E+01 -.148E+02   -.134E+00 0.104E-01 0.153E+00   -.155E+00 -.227E-02 0.466E+00
   -.126E-01 -.195E+01 0.117E+02   -.172E-02 0.206E+01 -.123E+02   0.279E-01 -.409E-01 0.112E+00   0.177E-01 -.250E-01 0.411E+00
   0.139E+02 -.804E+01 0.220E+02   -.145E+02 0.836E+01 -.228E+02   0.398E+00 -.193E+00 0.239E+00   0.186E+00 -.809E-01 0.552E+00
   0.258E-01 -.230E+02 0.519E+02   -.381E-02 0.238E+02 -.537E+02   0.261E-01 -.529E+00 0.104E+01   -.227E-01 -.180E+00 0.743E+00
   -.139E+02 -.801E+01 0.222E+02   0.145E+02 0.836E+01 -.230E+02   -.342E+00 -.193E+00 0.236E+00   -.193E+00 -.118E+00 0.553E+00
   -.171E+01 0.985E+00 0.110E+02   0.178E+01 -.103E+01 -.115E+02   -.260E-01 0.514E-01 0.878E-01   -.655E-02 0.218E-01 0.412E+00
   0.165E+01 0.966E+00 0.117E+02   -.178E+01 -.103E+01 -.122E+02   0.758E-01 0.478E-01 0.111E+00   0.569E-01 0.309E-01 0.411E+00
   0.274E+01 -.806E+01 0.144E+02   -.285E+01 0.834E+01 -.150E+02   0.117E+00 -.118E+00 0.124E+00   0.218E-01 -.138E+00 0.464E+00
   -.267E+01 -.805E+01 0.144E+02   0.285E+01 0.834E+01 -.150E+02   -.615E-01 -.116E+00 0.138E+00   -.806E-01 -.141E+00 0.466E+00
   0.514E-01 -.304E-01 -.741E+03   -.519E-01 0.309E-01 0.733E+03   -.257E-03 -.429E-03 0.466E+01   0.690E-03 -.443E-04 0.330E+01
 -----------------------------------------------------------------------------------------------
   -.102E-02 0.944E-03 -.349E+02   -.132E-13 0.214E-13 0.000E+00   -.117E-02 -.784E-03 0.148E+02   0.189E-02 -.791E-03 0.199E+02
 
 
 POSITION                                       TOTAL-FORCE (eV/Angst)
 -----------------------------------------------------------------------------------
      1.23329      0.71105     10.00000        -0.040032     -0.034987     -0.006757
      3.70383      0.71105      9.99949        -0.025815     -0.025983     -0.005496
      6.17176      0.71283     10.00000        -0.001299     -0.017927      0.031058
      8.63959      0.71282     10.00172        -0.042861     -0.028862      0.003358
     -0.00416      2.84804      9.99579        -0.036650     -0.040262      0.012066
      2.46855      2.84552      9.98311        -0.026636     -0.032484      0.026182
      4.94129      2.84804     10.00000        -0.024294     -0.042116     -0.028428
      7.40567      2.85002     10.00218        -0.031534     -0.045117      0.005621
     -1.23613      4.98821      9.99992        -0.036433     -0.042601     -0.010866
      1.23001      4.99075      9.98367        -0.029218     -0.029475      0.020899
      3.70710      4.99075      9.98316        -0.017834     -0.025887      0.022314
      6.17324      4.98821      9.99957        -0.033835     -0.037789     -0.003497
     -2.46856      7.12612     10.00001        -0.021354     -0.026681      0.008961
     -0.00086      7.12775      9.99979        -0.020632     -0.037392     -0.011580
      2.46856      7.13092      9.99571        -0.031871     -0.023132      0.011982
      4.93797      7.12775     10.00000        -0.035508     -0.038462     -0.006726
     -0.00086      1.42358     10.00000         0.036142      0.038660     -0.003576
      2.46857      1.42042      9.99551         0.031236      0.023513      0.011473
      4.93797      1.42359     10.00076         0.020381      0.036700     -0.004161
      7.40568      1.42522     10.00062         0.021216      0.026764      0.017367
     -1.23613      3.56313     10.00041         0.034451      0.037870     -0.009087
      1.23001      3.56059      9.98340         0.017880      0.026554      0.014693
      3.70709      3.56061      9.98431         0.031197      0.028116      0.027106
      6.17324      3.56314     10.00128         0.036947      0.042579      0.002189
     -2.46856      5.70132     10.00000         0.031285      0.044897      0.021459
     -0.00418      5.70330      9.99585         0.024723      0.041820      0.013572
      2.46857      5.70582      9.98347         0.025426      0.032388      0.019437
      4.94129      5.70329      9.99547         0.036015      0.040715      0.010917
     -3.70247      7.83851     10.00160         0.041506      0.029566      0.004321
     -1.23465      7.83851     10.00000         0.001232      0.018122      0.020800
      1.23329      7.84029      9.99981         0.025981      0.026246     -0.015784
      3.70383      7.84029     10.00000         0.040187      0.034662     -0.005587
      2.46856      4.27567     12.29870         0.000002     -0.000019     -0.194228
 -----------------------------------------------------------------------------------
    total drift:                               -0.000300     -0.000631     -0.191489


--------------------------------------------------------------------------------------------------------



  FREE ENERGIE OF THE ION-ELECTRON SYSTEM (eV)
  ---------------------------------------------------
  free  energy   TOTEN  =      -295.80715074 eV

  energy  without entropy=     -295.80444218  energy(sigma->0) =     -295.80579646
 


--------------------------------------------------------------------------------------------------------


    POTLOK:  cpu time    0.81: real time    0.92


--------------------------------------------------------------------------------------------------------


 writing wavefunctions
     LOOP+:  cpu time21300.62: real time21470.37
    4ORBIT:  cpu time    0.00: real time    0.00

 total amount of memory used by VASP on root node   725183. kBytes
========================================================================

   base      :      30000. kBytes
   nonlr-proj:      28389. kBytes
   fftplans  :      16807. kBytes
   grid      :     235296. kBytes
   one-center:        202. kBytes
   wavefun   :     414489. kBytes
 
  
  
 General timing and accounting informations for this job:
 ========================================================
  
                  Total CPU time used (sec):    21517.785
                            User time (sec):    21383.717
                          System time (sec):      134.069
                         Elapsed time (sec):    21690.303
  
                   Maximum memory used (kb):           0.
                   Average memory used (kb):           0.
  
                          Minor page faults:     29391115
                          Major page faults:           29
                 Voluntary context switches:      2413884
