LAMMPS data file via write_data, version 15 May 2015, timestep = 1000000

10050 atoms
10 atom types
11280 bonds
8 bond types
18057 angles
11 angle types
33120 dihedrals
13 dihedral types

0.0000000000000000e+00 6.3000000000000000e+01 xlo xhi
0.0000000000000000e+00 1.1154400000000000e+02 ylo yhi
0.0000000000000000e+00 5.0000000000000000e+01 zlo zhi

Masses

1 12.011
2 12.011
3 15.9994
4 12.011
5 15.9994
6 1.0008
7 1.0008
8 15.9994
9 22.99
10 35.45

Pair Coeffs # lj/cut/coul/long

1 0.07 3.55
2 0.066 3.5
3 0.14 2.9
4 0.07 3.55
5 0.17 3.07
6 0 0
7 0 0
8 0.15535 3.166
9 0.02639 2.5907
10 0.64367 4.1141

Bond Coeffs # harmonic

1 469 1.4
2 317 1.51
3 469 1.42
4 320 1.41
5 450 1.364
6 553 0.945
7 268 1.529
8 450 1

Angle Coeffs # harmonic

1 63 120
2 60 109.5
3 70 120
4 50 109.5
5 63 114
6 35 113
7 70 120
8 63 120
9 63 120
10 40 109.5
11 55 109.47

Dihedral Coeffs # opls

1 0 7.25 0 0
2 0.65 0 3 0
3 1.3 -0.05 0.2 0
4 0 7.25 0 0
5 0 7.25 0 0
6 0 1.682 0 0
7 0 7.25 0 0
8 0 7.25 0 0
9 0 0 0 0
10 0 7.25 0 0
11 0 7.25 0 0
12 0 7.25 0 0
13 0 0 0 0

Atoms # full

1 1 1 0.0000000000000000e+00 0.0000000000000000e+00 1.2123999999999999e+00 5.0000000000000000e+00 0 0 0
2 1 1 0.0000000000000000e+00 6.9999999999999996e-01 0.0000000000000000e+00 5.0000000000000000e+00 0 0 0
3 1 1 0.0000000000000000e+00 2.1000000000000001e+00 0.0000000000000000e+00 5.0000000000000000e+00 0 0 0
4 1 1 0.0000000000000000e+00 2.7999999999999998e+00 1.2123999999999999e+00 5.0000000000000000e+00 0 0 0
5 1 1 0.0000000000000000e+00 4.2000000000000002e+00 1.2123999999999999e+00 5.0000000000000000e+00 0 0 0
6 1 1 0.0000000000000000e+00 4.9000000000000004e+00 0.0000000000000000e+00 5.0000000000000000e+00 0 0 0
7 1 1 0.0000000000000000e+00 6.2999999999999998e+00 0.0000000000000000e+00 5.0000000000000000e+00 0 0 0
61 1 1 0.0000000000000000e+00 0.0000000000000000e+00 3.6373000000000002e+00 5.0000000000000000e+00 0 0 0
62 1 1 0.0000000000000000e+00 6.9999999999999996e-01 2.4249000000000001e+00 5.0000000000000000e+00 0 0 0
63 1 1 0.0000000000000000e+00 2.1000000000000001e+00 2.4249000000000001e+00 5.0000000000000000e+00 0 0 0
64 1 1 0.0000000000000000e+00 2.7999999999999998e+00 3.6373000000000002e+00 5.0000000000000000e+00 0 0 0
65 1 1 0.0000000000000000e+00 4.2000000000000002e+00 3.6373000000000002e+00 5.0000000000000000e+00 0 0 0
66 1 1 0.0000000000000000e+00 4.9000000000000004e+00 2.4249000000000001e+00 5.0000000000000000e+00 0 0 0
67 1 1 0.0000000000000000e+00 6.2999999999999998e+00 2.4249000000000001e+00 5.0000000000000000e+00 0 0 0
121 1 1 0.0000000000000000e+00 0.0000000000000000e+00 6.0621999999999998e+00 5.0000000000000000e+00 0 0 0
122 1 1 0.0000000000000000e+00 6.9999999999999996e-01 4.8497000000000003e+00 5.0000000000000000e+00 0 0 0
123 1 1 0.0000000000000000e+00 2.1000000000000001e+00 4.8497000000000003e+00 5.0000000000000000e+00 0 0 0
124 1 1 0.0000000000000000e+00 2.7999999999999998e+00 6.0621999999999998e+00 5.0000000000000000e+00 0 0 0
125 1 1 0.0000000000000000e+00 4.2000000000000002e+00 6.0621999999999998e+00 5.0000000000000000e+00 0 0 0
126 1 1 0.0000000000000000e+00 4.9000000000000004e+00 4.8497000000000003e+00 5.0000000000000000e+00 0 0 0
127 1 1 0.0000000000000000e+00 6.2999999999999998e+00 4.8497000000000003e+00 5.0000000000000000e+00 0 0 0
8 1 1 0.0000000000000000e+00 7.0000000000000000e+00 1.2123999999999999e+00 5.0000000000000000e+00 0 0 0
9 1 1 0.0000000000000000e+00 8.4000000000000004e+00 1.2123999999999999e+00 5.0000000000000000e+00 0 0 0
10 1 1 0.0000000000000000e+00 9.0999999999999996e+00 0.0000000000000000e+00 5.0000000000000000e+00 0 0 0
11 1 1 0.0000000000000000e+00 1.0500000000000000e+01 0.0000000000000000e+00 5.0000000000000000e+00 0 0 0
12 1 1 0.0000000000000000e+00 1.1199999999999999e+01 1.2123999999999999e+00 5.0000000000000000e+00 0 0 0
13 1 1 0.0000000000000000e+00 1.2600000000000000e+01 1.2123999999999999e+00 5.0000000000000000e+00 0 0 0
14 1 1 0.0000000000000000e+00 1.3300000000000001e+01 0.0000000000000000e+00 5.0000000000000000e+00 0 0 0
68 1 1 0.0000000000000000e+00 7.0000000000000000e+00 3.6373000000000002e+00 5.0000000000000000e+00 0 0 0
69 1 1 0.0000000000000000e+00 8.4000000000000004e+00 3.6373000000000002e+00 5.0000000000000000e+00 0 0 0
70 1 1 0.0000000000000000e+00 9.0999999999999996e+00 2.4249000000000001e+00 5.0000000000000000e+00 0 0 0
71 1 1 0.0000000000000000e+00 1.0500000000000000e+01 2.4249000000000001e+00 5.0000000000000000e+00 0 0 0
72 1 1 0.0000000000000000e+00 1.1199999999999999e+01 3.6373000000000002e+00 5.0000000000000000e+00 0 0 0
73 1 1 0.0000000000000000e+00 1.2600000000000000e+01 3.6373000000000002e+00 5.0000000000000000e+00 0 0 0
74 1 1 0.0000000000000000e+00 1.3300000000000001e+01 2.4249000000000001e+00 5.0000000000000000e+00 0 0 0
128 1 1 0.0000000000000000e+00 7.0000000000000000e+00 6.0621999999999998e+00 5.0000000000000000e+00 0 0 0
129 1 1 0.0000000000000000e+00 8.4000000000000004e+00 6.0621999999999998e+00 5.0000000000000000e+00 0 0 0
130 1 1 0.0000000000000000e+00 9.0999999999999996e+00 4.8497000000000003e+00 5.0000000000000000e+00 0 0 0
131 1 1 0.0000000000000000e+00 1.0500000000000000e+01 4.8497000000000003e+00 5.0000000000000000e+00 0 0 0
132 1 1 0.0000000000000000e+00 1.1199999999999999e+01 6.0621999999999998e+00 5.0000000000000000e+00 0 0 0
133 1 1 0.0000000000000000e+00 1.2600000000000000e+01 6.0621999999999998e+00 5.0000000000000000e+00 0 0 0
134 1 1 0.0000000000000000e+00 1.3300000000000001e+01 4.8497000000000003e+00 5.0000000000000000e+00 0 0 0
15 1 1 0.0000000000000000e+00 1.4699999999999999e+01 0.0000000000000000e+00 5.0000000000000000e+00 0 0 0
16 1 1 0.0000000000000000e+00 1.5400000000000000e+01 1.2123999999999999e+00 5.0000000000000000e+00 0 0 0
17 1 1 0.0000000000000000e+00 1.6800000000000001e+01 1.2123999999999999e+00 5.0000000000000000e+00 0 0 0
18 1 1 0.0000000000000000e+00 1.7500000000000000e+01 0.0000000000000000e+00 5.0000000000000000e+00 0 0 0
19 1 1 0.0000000000000000e+00 1.8899999999999999e+01 0.0000000000000000e+00 5.0000000000000000e+00 0 0 0
20 1 1 0.0000000000000000e+00 1.9600000000000001e+01 1.2123999999999999e+00 5.0000000000000000e+00 0 0 0
75 1 1 0.0000000000000000e+00 1.4699999999999999e+01 2.4249000000000001e+00 5.0000000000000000e+00 0 0 0
76 1 1 0.0000000000000000e+00 1.5400000000000000e+01 3.6373000000000002e+00 5.0000000000000000e+00 0 0 0
77 1 1 0.0000000000000000e+00 1.6800000000000001e+01 3.6373000000000002e+00 5.0000000000000000e+00 0 0 0
78 1 1 0.0000000000000000e+00 1.7500000000000000e+01 2.4249000000000001e+00 5.0000000000000000e+00 0 0 0
79 1 1 0.0000000000000000e+00 1.8899999999999999e+01 2.4249000000000001e+00 5.0000000000000000e+00 0 0 0
80 1 1 0.0000000000000000e+00 1.9600000000000001e+01 3.6373000000000002e+00 5.0000000000000000e+00 0 0 0
135 1 1 0.0000000000000000e+00 1.4699999999999999e+01 4.8497000000000003e+00 5.0000000000000000e+00 0 0 0
136 1 1 0.0000000000000000e+00 1.5400000000000000e+01 6.0621999999999998e+00 5.0000000000000000e+00 0 0 0
137 1 1 0.0000000000000000e+00 1.6800000000000001e+01 6.0621999999999998e+00 5.0000000000000000e+00 0 0 0
138 1 1 0.0000000000000000e+00 1.7500000000000000e+01 4.8497000000000003e+00 5.0000000000000000e+00 0 0 0
139 1 1 0.0000000000000000e+00 1.8899999999999999e+01 4.8497000000000003e+00 5.0000000000000000e+00 0 0 0
140 1 1 0.0000000000000000e+00 1.9600000000000001e+01 6.0621999999999998e+00 5.0000000000000000e+00 0 0 0
181 1 1 0.0000000000000000e+00 0.0000000000000000e+00 8.4870000000000001e+00 5.0000000000000000e+00 0 0 0
182 1 1 0.0000000000000000e+00 6.9999999999999996e-01 7.2746000000000004e+00 5.0000000000000000e+00 0 0 0
183 1 1 0.0000000000000000e+00 2.1000000000000001e+00 7.2746000000000004e+00 5.0000000000000000e+00 0 0 0
184 1 1 0.0000000000000000e+00 2.7999999999999998e+00 8.4870000000000001e+00 5.0000000000000000e+00 0 0 0
185 1 1 0.0000000000000000e+00 4.2000000000000002e+00 8.4870000000000001e+00 5.0000000000000000e+00 0 0 0
186 1 1 0.0000000000000000e+00 4.9000000000000004e+00 7.2746000000000004e+00 5.0000000000000000e+00 0 0 0
187 1 1 0.0000000000000000e+00 6.2999999999999998e+00 7.2746000000000004e+00 5.0000000000000000e+00 0 0 0
241 1 1 0.0000000000000000e+00 0.0000000000000000e+00 1.0911899999999999e+01 5.0000000000000000e+00 0 0 0
242 1 1 0.0000000000000000e+00 6.9999999999999996e-01 9.6995000000000005e+00 5.0000000000000000e+00 0 0 0
243 1 1 0.0000000000000000e+00 2.1000000000000001e+00 9.6995000000000005e+00 5.0000000000000000e+00 0 0 0
244 1 1 0.0000000000000000e+00 2.7999999999999998e+00 1.0911899999999999e+01 5.0000000000000000e+00 0 0 0
245 1 1 0.0000000000000000e+00 4.2000000000000002e+00 1.0911899999999999e+01 5.0000000000000000e+00 0 0 0
246 1 1 0.0000000000000000e+00 4.9000000000000004e+00 9.6995000000000005e+00 5.0000000000000000e+00 0 0 0
247 1 1 0.0000000000000000e+00 6.2999999999999998e+00 9.6995000000000005e+00 5.0000000000000000e+00 0 0 0
301 1 1 0.0000000000000000e+00 0.0000000000000000e+00 1.3336800000000000e+01 5.0000000000000000e+00 0 0 0
302 1 1 0.0000000000000000e+00 6.9999999999999996e-01 1.2124400000000000e+01 5.0000000000000000e+00 0 0 0
303 1 1 0.0000000000000000e+00 2.1000000000000001e+00 1.2124400000000000e+01 5.0000000000000000e+00 0 0 0
304 1 1 0.0000000000000000e+00 2.7999999999999998e+00 1.3336800000000000e+01 5.0000000000000000e+00 0 0 0
305 1 1 0.0000000000000000e+00 4.2000000000000002e+00 1.3336800000000000e+01 5.0000000000000000e+00 0 0 0
306 1 1 0.0000000000000000e+00 4.9000000000000004e+00 1.2124400000000000e+01 5.0000000000000000e+00 0 0 0
307 1 1 0.0000000000000000e+00 6.2999999999999998e+00 1.2124400000000000e+01 5.0000000000000000e+00 0 0 0
188 1 1 0.0000000000000000e+00 7.0000000000000000e+00 8.4870000000000001e+00 5.0000000000000000e+00 0 0 0
189 1 1 0.0000000000000000e+00 8.4000000000000004e+00 8.4870000000000001e+00 5.0000000000000000e+00 0 0 0
190 1 1 0.0000000000000000e+00 9.0999999999999996e+00 7.2746000000000004e+00 5.0000000000000000e+00 0 0 0
191 1 1 0.0000000000000000e+00 1.0500000000000000e+01 7.2746000000000004e+00 5.0000000000000000e+00 0 0 0
192 1 1 0.0000000000000000e+00 1.1199999999999999e+01 8.4870000000000001e+00 5.0000000000000000e+00 0 0 0
193 1 1 0.0000000000000000e+00 1.2600000000000000e+01 8.4870000000000001e+00 5.0000000000000000e+00 0 0 0
194 1 1 0.0000000000000000e+00 1.3300000000000001e+01 7.2746000000000004e+00 5.0000000000000000e+00 0 0 0
248 1 1 0.0000000000000000e+00 7.0000000000000000e+00 1.0911899999999999e+01 5.0000000000000000e+00 0 0 0
249 1 1 0.0000000000000000e+00 8.4000000000000004e+00 1.0911899999999999e+01 5.0000000000000000e+00 0 0 0
250 1 1 0.0000000000000000e+00 9.0999999999999996e+00 9.6995000000000005e+00 5.0000000000000000e+00 0 0 0
251 1 1 0.0000000000000000e+00 1.0500000000000000e+01 9.6995000000000005e+00 5.0000000000000000e+00 0 0 0
252 1 1 0.0000000000000000e+00 1.1199999999999999e+01 1.0911899999999999e+01 5.0000000000000000e+00 0 0 0
253 1 1 0.0000000000000000e+00 1.2600000000000000e+01 1.0911899999999999e+01 5.0000000000000000e+00 0 0 0
254 1 1 0.0000000000000000e+00 1.3300000000000001e+01 9.6995000000000005e+00 5.0000000000000000e+00 0 0 0
308 1 1 0.0000000000000000e+00 7.0000000000000000e+00 1.3336800000000000e+01 5.0000000000000000e+00 0 0 0
309 1 1 0.0000000000000000e+00 8.4000000000000004e+00 1.3336800000000000e+01 5.0000000000000000e+00 0 0 0
310 1 1 0.0000000000000000e+00 9.0999999999999996e+00 1.2124400000000000e+01 5.0000000000000000e+00 0 0 0
311 1 1 0.0000000000000000e+00 1.0500000000000000e+01 1.2124400000000000e+01 5.0000000000000000e+00 0 0 0
312 1 1 0.0000000000000000e+00 1.1199999999999999e+01 1.3336800000000000e+01 5.0000000000000000e+00 0 0 0
313 1 1 0.0000000000000000e+00 1.2600000000000000e+01 1.3336800000000000e+01 5.0000000000000000e+00 0 0 0
314 1 1 0.0000000000000000e+00 1.3300000000000001e+01 1.2124400000000000e+01 5.0000000000000000e+00 0 0 0
195 1 1 0.0000000000000000e+00 1.4699999999999999e+01 7.2746000000000004e+00 5.0000000000000000e+00 0 0 0
196 1 1 0.0000000000000000e+00 1.5400000000000000e+01 8.4870000000000001e+00 5.0000000000000000e+00 0 0 0
197 1 1 0.0000000000000000e+00 1.6800000000000001e+01 8.4870000000000001e+00 5.0000000000000000e+00 0 0 0
198 1 1 0.0000000000000000e+00 1.7500000000000000e+01 7.2746000000000004e+00 5.0000000000000000e+00 0 0 0
199 1 1 0.0000000000000000e+00 1.8899999999999999e+01 7.2746000000000004e+00 5.0000000000000000e+00 0 0 0
200 1 1 0.0000000000000000e+00 1.9600000000000001e+01 8.4870000000000001e+00 5.0000000000000000e+00 0 0 0
255 1 1 0.0000000000000000e+00 1.4699999999999999e+01 9.6995000000000005e+00 5.0000000000000000e+00 0 0 0
256 1 1 0.0000000000000000e+00 1.5400000000000000e+01 1.0911899999999999e+01 5.0000000000000000e+00 0 0 0
257 1 1 0.0000000000000000e+00 1.6800000000000001e+01 1.0911899999999999e+01 5.0000000000000000e+00 0 0 0
258 1 1 0.0000000000000000e+00 1.7500000000000000e+01 9.6995000000000005e+00 5.0000000000000000e+00 0 0 0
259 1 1 0.0000000000000000e+00 1.8899999999999999e+01 9.6995000000000005e+00 5.0000000000000000e+00 0 0 0
260 1 1 0.0000000000000000e+00 1.9600000000000001e+01 1.0911899999999999e+01 5.0000000000000000e+00 0 0 0
315 1 1 0.0000000000000000e+00 1.4699999999999999e+01 1.2124400000000000e+01 5.0000000000000000e+00 0 0 0
316 1 1 0.0000000000000000e+00 1.5400000000000000e+01 1.3336800000000000e+01 5.0000000000000000e+00 0 0 0
317 1 1 0.0000000000000000e+00 1.6800000000000001e+01 1.3336800000000000e+01 5.0000000000000000e+00 0 0 0
318 1 1 0.0000000000000000e+00 1.7500000000000000e+01 1.2124400000000000e+01 5.0000000000000000e+00 0 0 0
319 1 1 0.0000000000000000e+00 1.8899999999999999e+01 1.2124400000000000e+01 5.0000000000000000e+00 0 0 0
320 1 1 0.0000000000000000e+00 1.9600000000000001e+01 1.3336800000000000e+01 5.0000000000000000e+00 0 0 0
361 1 1 0.0000000000000000e+00 0.0000000000000000e+00 1.5761699999999999e+01 5.0000000000000000e+00 0 0 0
362 1 1 0.0000000000000000e+00 6.9999999999999996e-01 1.4549200000000001e+01 5.0000000000000000e+00 0 0 0
363 1 1 0.0000000000000000e+00 2.1000000000000001e+00 1.4549200000000001e+01 5.0000000000000000e+00 0 0 0
364 1 1 0.0000000000000000e+00 2.7999999999999998e+00 1.5761699999999999e+01 5.0000000000000000e+00 0 0 0
365 1 1 0.0000000000000000e+00 4.2000000000000002e+00 1.5761699999999999e+01 5.0000000000000000e+00 0 0 0
366 1 1 0.0000000000000000e+00 4.9000000000000004e+00 1.4549200000000001e+01 5.0000000000000000e+00 0 0 0
367 1 1 0.0000000000000000e+00 6.2999999999999998e+00 1.4549200000000001e+01 5.0000000000000000e+00 0 0 0
421 1 1 0.0000000000000000e+00 0.0000000000000000e+00 1.8186499999999999e+01 5.0000000000000000e+00 0 0 0
422 1 1 0.0000000000000000e+00 6.9999999999999996e-01 1.6974100000000000e+01 5.0000000000000000e+00 0 0 0
423 1 1 0.0000000000000000e+00 2.1000000000000001e+00 1.6974100000000000e+01 5.0000000000000000e+00 0 0 0
424 1 1 0.0000000000000000e+00 2.7999999999999998e+00 1.8186499999999999e+01 5.0000000000000000e+00 0 0 0
425 1 1 0.0000000000000000e+00 4.2000000000000002e+00 1.8186499999999999e+01 5.0000000000000000e+00 0 0 0
426 1 1 0.0000000000000000e+00 4.9000000000000004e+00 1.6974100000000000e+01 5.0000000000000000e+00 0 0 0
427 1 1 0.0000000000000000e+00 6.2999999999999998e+00 1.6974100000000000e+01 5.0000000000000000e+00 0 0 0
481 1 1 0.0000000000000000e+00 0.0000000000000000e+00 2.0611400000000000e+01 5.0000000000000000e+00 0 0 0
482 1 1 0.0000000000000000e+00 6.9999999999999996e-01 1.9399000000000001e+01 5.0000000000000000e+00 0 0 0
483 1 1 0.0000000000000000e+00 2.1000000000000001e+00 1.9399000000000001e+01 5.0000000000000000e+00 0 0 0
484 1 1 0.0000000000000000e+00 2.7999999999999998e+00 2.0611400000000000e+01 5.0000000000000000e+00 0 0 0
485 1 1 0.0000000000000000e+00 4.2000000000000002e+00 2.0611400000000000e+01 5.0000000000000000e+00 0 0 0
486 1 1 0.0000000000000000e+00 4.9000000000000004e+00 1.9399000000000001e+01 5.0000000000000000e+00 0 0 0
487 1 1 0.0000000000000000e+00 6.2999999999999998e+00 1.9399000000000001e+01 5.0000000000000000e+00 0 0 0
368 1 1 0.0000000000000000e+00 7.0000000000000000e+00 1.5761699999999999e+01 5.0000000000000000e+00 0 0 0
369 1 1 0.0000000000000000e+00 8.4000000000000004e+00 1.5761699999999999e+01 5.0000000000000000e+00 0 0 0
370 1 1 0.0000000000000000e+00 9.0999999999999996e+00 1.4549200000000001e+01 5.0000000000000000e+00 0 0 0
371 1 1 0.0000000000000000e+00 1.0500000000000000e+01 1.4549200000000001e+01 5.0000000000000000e+00 0 0 0
372 1 1 0.0000000000000000e+00 1.1199999999999999e+01 1.5761699999999999e+01 5.0000000000000000e+00 0 0 0
373 1 1 0.0000000000000000e+00 1.2600000000000000e+01 1.5761699999999999e+01 5.0000000000000000e+00 0 0 0
374 1 1 0.0000000000000000e+00 1.3300000000000001e+01 1.4549200000000001e+01 5.0000000000000000e+00 0 0 0
428 1 1 0.0000000000000000e+00 7.0000000000000000e+00 1.8186499999999999e+01 5.0000000000000000e+00 0 0 0
429 1 1 0.0000000000000000e+00 8.4000000000000004e+00 1.8186499999999999e+01 5.0000000000000000e+00 0 0 0
430 1 1 0.0000000000000000e+00 9.0999999999999996e+00 1.6974100000000000e+01 5.0000000000000000e+00 0 0 0
431 1 1 0.0000000000000000e+00 1.0500000000000000e+01 1.6974100000000000e+01 5.0000000000000000e+00 0 0 0
432 1 1 0.0000000000000000e+00 1.1199999999999999e+01 1.8186499999999999e+01 5.0000000000000000e+00 0 0 0
433 1 1 0.0000000000000000e+00 1.2600000000000000e+01 1.8186499999999999e+01 5.0000000000000000e+00 0 0 0
434 1 1 0.0000000000000000e+00 1.3300000000000001e+01 1.6974100000000000e+01 5.0000000000000000e+00 0 0 0
488 1 1 0.0000000000000000e+00 7.0000000000000000e+00 2.0611400000000000e+01 5.0000000000000000e+00 0 0 0
489 1 1 0.0000000000000000e+00 8.4000000000000004e+00 2.0611400000000000e+01 5.0000000000000000e+00 0 0 0
490 1 1 0.0000000000000000e+00 9.0999999999999996e+00 1.9399000000000001e+01 5.0000000000000000e+00 0 0 0
491 1 1 0.0000000000000000e+00 1.0500000000000000e+01 1.9399000000000001e+01 5.0000000000000000e+00 0 0 0
492 1 1 0.0000000000000000e+00 1.1199999999999999e+01 2.0611400000000000e+01 5.0000000000000000e+00 0 0 0
493 1 1 0.0000000000000000e+00 1.2600000000000000e+01 2.0611400000000000e+01 5.0000000000000000e+00 0 0 0
494 1 1 0.0000000000000000e+00 1.3300000000000001e+01 1.9399000000000001e+01 5.0000000000000000e+00 0 0 0
375 1 1 0.0000000000000000e+00 1.4699999999999999e+01 1.4549200000000001e+01 5.0000000000000000e+00 0 0 0
376 1 1 0.0000000000000000e+00 1.5400000000000000e+01 1.5761699999999999e+01 5.0000000000000000e+00 0 0 0
377 1 1 0.0000000000000000e+00 1.6800000000000001e+01 1.5761699999999999e+01 5.0000000000000000e+00 0 0 0
378 1 1 0.0000000000000000e+00 1.7500000000000000e+01 1.4549200000000001e+01 5.0000000000000000e+00 0 0 0
379 1 1 0.0000000000000000e+00 1.8899999999999999e+01 1.4549200000000001e+01 5.0000000000000000e+00 0 0 0
380 1 1 0.0000000000000000e+00 1.9600000000000001e+01 1.5761699999999999e+01 5.0000000000000000e+00 0 0 0
435 1 1 0.0000000000000000e+00 1.4699999999999999e+01 1.6974100000000000e+01 5.0000000000000000e+00 0 0 0
436 1 1 0.0000000000000000e+00 1.5400000000000000e+01 1.8186499999999999e+01 5.0000000000000000e+00 0 0 0
437 1 1 0.0000000000000000e+00 1.6800000000000001e+01 1.8186499999999999e+01 5.0000000000000000e+00 0 0 0
438 1 1 0.0000000000000000e+00 1.7500000000000000e+01 1.6974100000000000e+01 5.0000000000000000e+00 0 0 0
439 1 1 0.0000000000000000e+00 1.8899999999999999e+01 1.6974100000000000e+01 5.0000000000000000e+00 0 0 0
440 1 1 0.0000000000000000e+00 1.9600000000000001e+01 1.8186499999999999e+01 5.0000000000000000e+00 0 0 0
495 1 1 0.0000000000000000e+00 1.4699999999999999e+01 1.9399000000000001e+01 5.0000000000000000e+00 0 0 0
496 1 1 0.0000000000000000e+00 1.5400000000000000e+01 2.0611400000000000e+01 5.0000000000000000e+00 0 0 0
497 1 1 0.0000000000000000e+00 1.6800000000000001e+01 2.0611400000000000e+01 5.0000000000000000e+00 0 0 0
498 1 1 0.0000000000000000e+00 1.7500000000000000e+01 1.9399000000000001e+01 5.0000000000000000e+00 0 0 0
499 1 1 0.0000000000000000e+00 1.8899999999999999e+01 1.9399000000000001e+01 5.0000000000000000e+00 0 0 0
500 1 1 0.0000000000000000e+00 1.9600000000000001e+01 2.0611400000000000e+01 5.0000000000000000e+00 0 0 0
541 1 1 0.0000000000000000e+00 0.0000000000000000e+00 2.3036300000000001e+01 5.0000000000000000e+00 0 0 0
542 1 1 0.0000000000000000e+00 6.9999999999999996e-01 2.1823799999999999e+01 5.0000000000000000e+00 0 0 0
543 1 1 0.0000000000000000e+00 2.1000000000000001e+00 2.1823799999999999e+01 5.0000000000000000e+00 0 0 0
544 1 1 0.0000000000000000e+00 2.7999999999999998e+00 2.3036300000000001e+01 5.0000000000000000e+00 0 0 0
545 1 1 0.0000000000000000e+00 4.2000000000000002e+00 2.3036300000000001e+01 5.0000000000000000e+00 0 0 0
546 1 1 0.0000000000000000e+00 4.9000000000000004e+00 2.1823799999999999e+01 5.0000000000000000e+00 0 0 0
547 1 1 0.0000000000000000e+00 6.2999999999999998e+00 2.1823799999999999e+01 5.0000000000000000e+00 0 0 0
601 1 1 0.0000000000000000e+00 0.0000000000000000e+00 2.5461099999999998e+01 5.0000000000000000e+00 0 0 0
602 1 1 0.0000000000000000e+00 6.9999999999999996e-01 2.4248699999999999e+01 5.0000000000000000e+00 0 0 0
603 1 1 0.0000000000000000e+00 2.1000000000000001e+00 2.4248699999999999e+01 5.0000000000000000e+00 0 0 0
604 1 1 0.0000000000000000e+00 2.7999999999999998e+00 2.5461099999999998e+01 5.0000000000000000e+00 0 0 0
605 1 1 0.0000000000000000e+00 4.2000000000000002e+00 2.5461099999999998e+01 5.0000000000000000e+00 0 0 0
606 1 1 0.0000000000000000e+00 4.9000000000000004e+00 2.4248699999999999e+01 5.0000000000000000e+00 0 0 0
607 1 1 0.0000000000000000e+00 6.2999999999999998e+00 2.4248699999999999e+01 5.0000000000000000e+00 0 0 0
662 1 1 0.0000000000000000e+00 6.9999999999999996e-01 2.6673600000000000e+01 5.0000000000000000e+00 0 0 0
663 1 1 0.0000000000000000e+00 2.1000000000000001e+00 2.6673600000000000e+01 5.0000000000000000e+00 0 0 0
666 1 1 0.0000000000000000e+00 4.9000000000000004e+00 2.6673600000000000e+01 5.0000000000000000e+00 0 0 0
667 1 1 0.0000000000000000e+00 6.2999999999999998e+00 2.6673600000000000e+01 5.0000000000000000e+00 0 0 0
548 1 1 0.0000000000000000e+00 7.0000000000000000e+00 2.3036300000000001e+01 5.0000000000000000e+00 0 0 0
549 1 1 0.0000000000000000e+00 8.4000000000000004e+00 2.3036300000000001e+01 5.0000000000000000e+00 0 0 0
550 1 1 0.0000000000000000e+00 9.0999999999999996e+00 2.1823799999999999e+01 5.0000000000000000e+00 0 0 0
551 1 1 0.0000000000000000e+00 1.0500000000000000e+01 2.1823799999999999e+01 5.0000000000000000e+00 0 0 0
552 1 1 0.0000000000000000e+00 1.1199999999999999e+01 2.3036300000000001e+01 5.0000000000000000e+00 0 0 0
553 1 1 0.0000000000000000e+00 1.2600000000000000e+01 2.3036300000000001e+01 5.0000000000000000e+00 0 0 0
554 1 1 0.0000000000000000e+00 1.3300000000000001e+01 2.1823799999999999e+01 5.0000000000000000e+00 0 0 0
608 1 1 0.0000000000000000e+00 7.0000000000000000e+00 2.5461099999999998e+01 5.0000000000000000e+00 0 0 0
609 1 1 0.0000000000000000e+00 8.4000000000000004e+00 2.5461099999999998e+01 5.0000000000000000e+00 0 0 0
610 1 1 0.0000000000000000e+00 9.0999999999999996e+00 2.4248699999999999e+01 5.0000000000000000e+00 0 0 0
611 1 1 0.0000000000000000e+00 1.0500000000000000e+01 2.4248699999999999e+01 5.0000000000000000e+00 0 0 0
612 1 1 0.0000000000000000e+00 1.1199999999999999e+01 2.5461099999999998e+01 5.0000000000000000e+00 0 0 0
613 1 1 0.0000000000000000e+00 1.2600000000000000e+01 2.5461099999999998e+01 5.0000000000000000e+00 0 0 0
614 1 1 0.0000000000000000e+00 1.3300000000000001e+01 2.4248699999999999e+01 5.0000000000000000e+00 0 0 0
670 1 1 0.0000000000000000e+00 9.0999999999999996e+00 2.6673600000000000e+01 5.0000000000000000e+00 0 0 0
671 1 1 0.0000000000000000e+00 1.0500000000000000e+01 2.6673600000000000e+01 5.0000000000000000e+00 0 0 0
674 1 1 0.0000000000000000e+00 1.3300000000000001e+01 2.6673600000000000e+01 5.0000000000000000e+00 0 0 0
555 1 1 0.0000000000000000e+00 1.4699999999999999e+01 2.1823799999999999e+01 5.0000000000000000e+00 0 0 0
556 1 1 0.0000000000000000e+00 1.5400000000000000e+01 2.3036300000000001e+01 5.0000000000000000e+00 0 0 0
557 1 1 0.0000000000000000e+00 1.6800000000000001e+01 2.3036300000000001e+01 5.0000000000000000e+00 0 0 0
558 1 1 0.0000000000000000e+00 1.7500000000000000e+01 2.1823799999999999e+01 5.0000000000000000e+00 0 0 0
559 1 1 0.0000000000000000e+00 1.8899999999999999e+01 2.1823799999999999e+01 5.0000000000000000e+00 0 0 0
560 1 1 0.0000000000000000e+00 1.9600000000000001e+01 2.3036300000000001e+01 5.0000000000000000e+00 0 0 0
615 1 1 0.0000000000000000e+00 1.4699999999999999e+01 2.4248699999999999e+01 5.0000000000000000e+00 0 0 0
616 1 1 0.0000000000000000e+00 1.5400000000000000e+01 2.5461099999999998e+01 5.0000000000000000e+00 0 0 0
617 1 1 0.0000000000000000e+00 1.6800000000000001e+01 2.5461099999999998e+01 5.0000000000000000e+00 0 0 0
618 1 1 0.0000000000000000e+00 1.7500000000000000e+01 2.4248699999999999e+01 5.0000000000000000e+00 0 0 0
619 1 1 0.0000000000000000e+00 1.8899999999999999e+01 2.4248699999999999e+01 5.0000000000000000e+00 0 0 0
620 1 1 0.0000000000000000e+00 1.9600000000000001e+01 2.5461099999999998e+01 5.0000000000000000e+00 0 0 0
675 1 1 0.0000000000000000e+00 1.4699999999999999e+01 2.6673600000000000e+01 5.0000000000000000e+00 0 0 0
678 1 1 0.0000000000000000e+00 1.7500000000000000e+01 2.6673600000000000e+01 5.0000000000000000e+00 0 0 0
679 1 1 0.0000000000000000e+00 1.8899999999999999e+01 2.6673600000000000e+01 5.0000000000000000e+00 0 0 0
9258 1248 8 -8.4719999999999995e-01 4.7417825895489312e+00 4.0802125014160273e+00 1.1926272887690063e+01 0 0 0
8315 934 7 4.2359999999999998e-01 4.8002752238408082e+00 1.4365603397692683e+00 8.3823211822172006e+00 1 1 0
8316 934 8 -8.4719999999999995e-01 5.4012539224981690e+00 2.1273508270093147e+00 7.9802834945596413e+00 1 1 0
8314 934 7 4.2359999999999998e-01 4.9109570584417366e+00 2.6166482112300309e+00 7.2590363349431586e+00 1 1 0
6342 276 8 -8.4719999999999995e-01 1.9714244917177486e+00 3.3336489717054691e+00 8.9158812721315321e+00 0 1 0
6341 276 7 4.2359999999999998e-01 2.2109665540247745e+00 2.4789500784315268e+00 8.4553278975477202e+00 0 1 0
9257 1248 7 4.2359999999999998e-01 5.1050786931258587e+00 4.8453877167954742e+00 1.1394743982079492e+01 0 0 0
5653 47 7 4.2359999999999998e-01 2.0836037406120171e+00 3.2740670259011160e+00 1.0482044375727369e+01 1 0 0
5654 47 7 4.2359999999999998e-01 3.0095635311519056e+00 3.5652293743006309e+00 1.1795227328514967e+01 1 0 0
7353 613 8 -8.4719999999999995e-01 3.6864444116795370e+00 5.7900812350549780e+00 8.9338242196450466e+00 0 0 0
5655 47 8 -8.4719999999999995e-01 2.1218190503420451e+00 3.2294590102244594e+00 1.1480317770697811e+01 1 0 0
6340 276 7 4.2359999999999998e-01 1.1073270917997513e+00 3.6788352426474069e+00 8.5495724479046853e+00 0 1 0
7351 613 7 4.2359999999999998e-01 3.2102725454798806e+00 6.5787772594669098e+00 8.5449548865178286e+00 0 0 0
9624 1370 8 -8.4719999999999995e-01 6.0311050213168107e+00 6.1793982602986404e+00 9.7007611408582708e+00 0 0 0
7352 613 7 4.2359999999999998e-01 3.0518170569440066e+00 5.0208167028106416e+00 9.0078559879436320e+00 0 0 0
7822 770 7 4.2359999999999998e-01 7.1390305253035411e+00 2.2082608133117043e+00 8.0155140957514615e+00 0 0 0
9622 1370 7 4.2359999999999998e-01 6.6650240484760630e+00 5.6070766735252464e+00 9.1805739611727475e+00 0 0 0
9663 1383 8 -8.4719999999999995e-01 3.2644206395147757e+00 4.5700049851432617e-01 8.7649963278692837e+00 1 1 0
8558 1015 7 4.2359999999999998e-01 2.4996018651450616e+00 1.1932477094349068e+00 1.1608577949868293e+01 0 0 0
9623 1370 7 4.2359999999999998e-01 5.0913463756917574e+00 5.9562574377214021e+00 9.4417979014455682e+00 0 0 0
8559 1015 8 -8.4719999999999995e-01 2.3200410686378903e+00 2.3274505604451570e-01 1.1821164911416915e+01 0 0 0
6892 460 7 4.2359999999999998e-01 3.9501699704631132e-01 2.2041852608737762e+00 1.1665523342203706e+01 0 0 0
7447 645 7 4.2359999999999998e-01 2.0932658162492714e+01 1.1752800733898269e+01 1.0743048105493950e+01 0 1 0
7931 806 7 4.2359999999999998e-01 1.4585620529817268e+01 3.8088846299678258e-01 1.2147052968053526e+01 0 0 0
5634 40 8 -8.4719999999999995e-01 1.0525413247255669e+01 9.8234466969264939e-02 1.1464631940625173e+01 1 0 0
9256 1248 7 4.2359999999999998e-01 5.4293595662468874e+00 3.3561655912330837e+00 1.1980991305232473e+01 0 0 0
7764 750 8 -8.4719999999999995e-01 1.8936367268852553e+01 2.6507727938667025e-01 1.0732743782754953e+01 0 0 0
7387 625 7 4.2359999999999998e-01 2.0630040079973639e+01 1.7357494929333356e+01 1.1220902225777909e+01 1 0 0
9661 1383 7 4.2359999999999998e-01 2.3069529451137694e+00 2.1935318933163844e-01 8.6013522394411552e+00 1 1 0
7904 797 7 4.2359999999999998e-01 2.0946552671251744e+01 2.5168292696363634e+00 1.0814516810470371e+01 0 0 0
8377 955 7 4.2359999999999998e-01 1.2760178779635879e+01 1.0304891221714005e+00 8.1589958821167574e+00 1 1 0
7824 770 8 -8.4719999999999995e-01 8.1273863025702724e+00 2.2076459287126169e+00 8.1676735950990178e+00 0 0 0
7823 770 7 4.2359999999999998e-01 8.3832619054000865e+00 3.0149568231338022e+00 8.6994412277535851e+00 0 0 0
9543 1343 8 -8.4719999999999995e-01 6.4657791913413103e+00 1.7451429073869413e+00 1.1102898087251656e+01 0 0 0
9542 1343 7 4.2359999999999998e-01 6.4116820119752607e+00 1.6770477166060815e+00 1.0106686789925673e+01 0 0 0
9541 1343 7 4.2359999999999998e-01 6.1557053680677907e+00 8.8740383978213233e-01 1.1512946235770967e+01 0 0 0
7443 643 8 -8.4719999999999995e-01 1.0411090358166414e+01 2.5702849740707481e+00 1.0777744926895149e+01 0 0 0
7442 643 7 4.2359999999999998e-01 1.0576807461524984e+01 1.6214320425968183e+00 1.1046475330238934e+01 0 0 0
8549 1012 7 4.2359999999999998e-01 1.0332729970391965e+01 1.8324853461547836e+00 7.6623430980655218e+00 0 0 0
7846 778 7 4.2359999999999998e-01 9.0800612775565153e+00 5.5387467637326857e+00 9.1525425243572318e+00 1 0 0
7847 778 7 4.2359999999999998e-01 8.2388191655584322e+00 4.5952401718345355e+00 1.0186338216231427e+01 1 0 0
7848 778 8 -8.4719999999999995e-01 8.3646178971882623e+00 4.8439444634494295e+00 9.2259628244706349e+00 1 0 0