LAMMPS data file via write_data, version 15 May 2015, timestep = 10000000

10050 atoms
10 atom types
11280 bonds
8 bond types
18057 angles
11 angle types
33120 dihedrals
13 dihedral types

0.0000000000000000e+00 6.3000000000000000e+01 xlo xhi
0.0000000000000000e+00 1.1154400000000000e+02 ylo yhi
0.0000000000000000e+00 5.0000000000000000e+01 zlo zhi

Masses

1 12.011
2 12.011
3 15.9994
4 12.011
5 15.9994
6 1.0008
7 1.0008
8 15.9994
9 22.99
10 35.45

Pair Coeffs # lj/cut/coul/long

1 0.07 3.55
2 0.066 3.5
3 0.14 2.9
4 0.07 3.55
5 0.17 3.07
6 0 0
7 0 0
8 0.15535 3.166
9 0.02639 2.5907
10 0.64367 4.1141

Bond Coeffs # harmonic

1 469 1.4
2 317 1.51
3 469 1.42
4 320 1.41
5 450 1.364
6 553 0.945
7 268 1.529
8 450 1

Angle Coeffs # harmonic

1 63 120
2 60 109.5
3 70 120
4 50 109.5
5 63 114
6 35 113
7 70 120
8 63 120
9 63 120
10 40 109.5
11 55 109.47

Dihedral Coeffs # opls

1 0 7.25 0 0
2 0.65 0 3 0
3 1.3 -0.05 0.2 0
4 0 7.25 0 0
5 0 7.25 0 0
6 0 1.682 0 0
7 0 7.25 0 0
8 0 7.25 0 0
9 0 0 0 0
10 0 7.25 0 0
11 0 7.25 0 0
12 0 7.25 0 0
13 0 0 0 0

Atoms # full

1 1 1 0.0000000000000000e+00 0.0000000000000000e+00 1.2123999999999999e+00 5.0000000000000000e+00 0 0 0
2 1 1 0.0000000000000000e+00 6.9999999999999996e-01 0.0000000000000000e+00 5.0000000000000000e+00 0 0 0
3 1 1 0.0000000000000000e+00 2.1000000000000001e+00 0.0000000000000000e+00 5.0000000000000000e+00 0 0 0
4 1 1 0.0000000000000000e+00 2.7999999999999998e+00 1.2123999999999999e+00 5.0000000000000000e+00 0 0 0
5 1 1 0.0000000000000000e+00 4.2000000000000002e+00 1.2123999999999999e+00 5.0000000000000000e+00 0 0 0
6 1 1 0.0000000000000000e+00 4.9000000000000004e+00 0.0000000000000000e+00 5.0000000000000000e+00 0 0 0
7 1 1 0.0000000000000000e+00 6.2999999999999998e+00 0.0000000000000000e+00 5.0000000000000000e+00 0 0 0
61 1 1 0.0000000000000000e+00 0.0000000000000000e+00 3.6373000000000002e+00 5.0000000000000000e+00 0 0 0
62 1 1 0.0000000000000000e+00 6.9999999999999996e-01 2.4249000000000001e+00 5.0000000000000000e+00 0 0 0
63 1 1 0.0000000000000000e+00 2.1000000000000001e+00 2.4249000000000001e+00 5.0000000000000000e+00 0 0 0
64 1 1 0.0000000000000000e+00 2.7999999999999998e+00 3.6373000000000002e+00 5.0000000000000000e+00 0 0 0
65 1 1 0.0000000000000000e+00 4.2000000000000002e+00 3.6373000000000002e+00 5.0000000000000000e+00 0 0 0
66 1 1 0.0000000000000000e+00 4.9000000000000004e+00 2.4249000000000001e+00 5.0000000000000000e+00 0 0 0
67 1 1 0.0000000000000000e+00 6.2999999999999998e+00 2.4249000000000001e+00 5.0000000000000000e+00 0 0 0
121 1 1 0.0000000000000000e+00 0.0000000000000000e+00 6.0621999999999998e+00 5.0000000000000000e+00 0 0 0
122 1 1 0.0000000000000000e+00 6.9999999999999996e-01 4.8497000000000003e+00 5.0000000000000000e+00 0 0 0
123 1 1 0.0000000000000000e+00 2.1000000000000001e+00 4.8497000000000003e+00 5.0000000000000000e+00 0 0 0
124 1 1 0.0000000000000000e+00 2.7999999999999998e+00 6.0621999999999998e+00 5.0000000000000000e+00 0 0 0
125 1 1 0.0000000000000000e+00 4.2000000000000002e+00 6.0621999999999998e+00 5.0000000000000000e+00 0 0 0
126 1 1 0.0000000000000000e+00 4.9000000000000004e+00 4.8497000000000003e+00 5.0000000000000000e+00 0 0 0
127 1 1 0.0000000000000000e+00 6.2999999999999998e+00 4.8497000000000003e+00 5.0000000000000000e+00 0 0 0
8 1 1 0.0000000000000000e+00 7.0000000000000000e+00 1.2123999999999999e+00 5.0000000000000000e+00 0 0 0
68 1 1 0.0000000000000000e+00 7.0000000000000000e+00 3.6373000000000002e+00 5.0000000000000000e+00 0 0 0
128 1 1 0.0000000000000000e+00 7.0000000000000000e+00 6.0621999999999998e+00 5.0000000000000000e+00 0 0 0
9 1 1 0.0000000000000000e+00 8.4000000000000004e+00 1.2123999999999999e+00 5.0000000000000000e+00 0 0 0
10 1 1 0.0000000000000000e+00 9.0999999999999996e+00 0.0000000000000000e+00 5.0000000000000000e+00 0 0 0
11 1 1 0.0000000000000000e+00 1.0500000000000000e+01 0.0000000000000000e+00 5.0000000000000000e+00 0 0 0
12 1 1 0.0000000000000000e+00 1.1199999999999999e+01 1.2123999999999999e+00 5.0000000000000000e+00 0 0 0
13 1 1 0.0000000000000000e+00 1.2600000000000000e+01 1.2123999999999999e+00 5.0000000000000000e+00 0 0 0
14 1 1 0.0000000000000000e+00 1.3300000000000001e+01 0.0000000000000000e+00 5.0000000000000000e+00 0 0 0
69 1 1 0.0000000000000000e+00 8.4000000000000004e+00 3.6373000000000002e+00 5.0000000000000000e+00 0 0 0
70 1 1 0.0000000000000000e+00 9.0999999999999996e+00 2.4249000000000001e+00 5.0000000000000000e+00 0 0 0
71 1 1 0.0000000000000000e+00 1.0500000000000000e+01 2.4249000000000001e+00 5.0000000000000000e+00 0 0 0
72 1 1 0.0000000000000000e+00 1.1199999999999999e+01 3.6373000000000002e+00 5.0000000000000000e+00 0 0 0
73 1 1 0.0000000000000000e+00 1.2600000000000000e+01 3.6373000000000002e+00 5.0000000000000000e+00 0 0 0
74 1 1 0.0000000000000000e+00 1.3300000000000001e+01 2.4249000000000001e+00 5.0000000000000000e+00 0 0 0
129 1 1 0.0000000000000000e+00 8.4000000000000004e+00 6.0621999999999998e+00 5.0000000000000000e+00 0 0 0
130 1 1 0.0000000000000000e+00 9.0999999999999996e+00 4.8497000000000003e+00 5.0000000000000000e+00 0 0 0
131 1 1 0.0000000000000000e+00 1.0500000000000000e+01 4.8497000000000003e+00 5.0000000000000000e+00 0 0 0
132 1 1 0.0000000000000000e+00 1.1199999999999999e+01 6.0621999999999998e+00 5.0000000000000000e+00 0 0 0
133 1 1 0.0000000000000000e+00 1.2600000000000000e+01 6.0621999999999998e+00 5.0000000000000000e+00 0 0 0
134 1 1 0.0000000000000000e+00 1.3300000000000001e+01 4.8497000000000003e+00 5.0000000000000000e+00 0 0 0
15 1 1 0.0000000000000000e+00 1.4699999999999999e+01 0.0000000000000000e+00 5.0000000000000000e+00 0 0 0
16 1 1 0.0000000000000000e+00 1.5400000000000000e+01 1.2123999999999999e+00 5.0000000000000000e+00 0 0 0
75 1 1 0.0000000000000000e+00 1.4699999999999999e+01 2.4249000000000001e+00 5.0000000000000000e+00 0 0 0
76 1 1 0.0000000000000000e+00 1.5400000000000000e+01 3.6373000000000002e+00 5.0000000000000000e+00 0 0 0
135 1 1 0.0000000000000000e+00 1.4699999999999999e+01 4.8497000000000003e+00 5.0000000000000000e+00 0 0 0
136 1 1 0.0000000000000000e+00 1.5400000000000000e+01 6.0621999999999998e+00 5.0000000000000000e+00 0 0 0
181 1 1 0.0000000000000000e+00 0.0000000000000000e+00 8.4870000000000001e+00 5.0000000000000000e+00 0 0 0
182 1 1 0.0000000000000000e+00 6.9999999999999996e-01 7.2746000000000004e+00 5.0000000000000000e+00 0 0 0
183 1 1 0.0000000000000000e+00 2.1000000000000001e+00 7.2746000000000004e+00 5.0000000000000000e+00 0 0 0
184 1 1 0.0000000000000000e+00 2.7999999999999998e+00 8.4870000000000001e+00 5.0000000000000000e+00 0 0 0
185 1 1 0.0000000000000000e+00 4.2000000000000002e+00 8.4870000000000001e+00 5.0000000000000000e+00 0 0 0
186 1 1 0.0000000000000000e+00 4.9000000000000004e+00 7.2746000000000004e+00 5.0000000000000000e+00 0 0 0
187 1 1 0.0000000000000000e+00 6.2999999999999998e+00 7.2746000000000004e+00 5.0000000000000000e+00 0 0 0
241 1 1 0.0000000000000000e+00 0.0000000000000000e+00 1.0911899999999999e+01 5.0000000000000000e+00 0 0 0
242 1 1 0.0000000000000000e+00 6.9999999999999996e-01 9.6995000000000005e+00 5.0000000000000000e+00 0 0 0
243 1 1 0.0000000000000000e+00 2.1000000000000001e+00 9.6995000000000005e+00 5.0000000000000000e+00 0 0 0
244 1 1 0.0000000000000000e+00 2.7999999999999998e+00 1.0911899999999999e+01 5.0000000000000000e+00 0 0 0
245 1 1 0.0000000000000000e+00 4.2000000000000002e+00 1.0911899999999999e+01 5.0000000000000000e+00 0 0 0
246 1 1 0.0000000000000000e+00 4.9000000000000004e+00 9.6995000000000005e+00 5.0000000000000000e+00 0 0 0
247 1 1 0.0000000000000000e+00 6.2999999999999998e+00 9.6995000000000005e+00 5.0000000000000000e+00 0 0 0
302 1 1 0.0000000000000000e+00 6.9999999999999996e-01 1.2124400000000000e+01 5.0000000000000000e+00 0 0 0
303 1 1 0.0000000000000000e+00 2.1000000000000001e+00 1.2124400000000000e+01 5.0000000000000000e+00 0 0 0
306 1 1 0.0000000000000000e+00 4.9000000000000004e+00 1.2124400000000000e+01 5.0000000000000000e+00 0 0 0
307 1 1 0.0000000000000000e+00 6.2999999999999998e+00 1.2124400000000000e+01 5.0000000000000000e+00 0 0 0
188 1 1 0.0000000000000000e+00 7.0000000000000000e+00 8.4870000000000001e+00 5.0000000000000000e+00 0 0 0
248 1 1 0.0000000000000000e+00 7.0000000000000000e+00 1.0911899999999999e+01 5.0000000000000000e+00 0 0 0
189 1 1 0.0000000000000000e+00 8.4000000000000004e+00 8.4870000000000001e+00 5.0000000000000000e+00 0 0 0
190 1 1 0.0000000000000000e+00 9.0999999999999996e+00 7.2746000000000004e+00 5.0000000000000000e+00 0 0 0
191 1 1 0.0000000000000000e+00 1.0500000000000000e+01 7.2746000000000004e+00 5.0000000000000000e+00 0 0 0
192 1 1 0.0000000000000000e+00 1.1199999999999999e+01 8.4870000000000001e+00 5.0000000000000000e+00 0 0 0
193 1 1 0.0000000000000000e+00 1.2600000000000000e+01 8.4870000000000001e+00 5.0000000000000000e+00 0 0 0
194 1 1 0.0000000000000000e+00 1.3300000000000001e+01 7.2746000000000004e+00 5.0000000000000000e+00 0 0 0
249 1 1 0.0000000000000000e+00 8.4000000000000004e+00 1.0911899999999999e+01 5.0000000000000000e+00 0 0 0
250 1 1 0.0000000000000000e+00 9.0999999999999996e+00 9.6995000000000005e+00 5.0000000000000000e+00 0 0 0
251 1 1 0.0000000000000000e+00 1.0500000000000000e+01 9.6995000000000005e+00 5.0000000000000000e+00 0 0 0
252 1 1 0.0000000000000000e+00 1.1199999999999999e+01 1.0911899999999999e+01 5.0000000000000000e+00 0 0 0
253 1 1 0.0000000000000000e+00 1.2600000000000000e+01 1.0911899999999999e+01 5.0000000000000000e+00 0 0 0
254 1 1 0.0000000000000000e+00 1.3300000000000001e+01 9.6995000000000005e+00 5.0000000000000000e+00 0 0 0
310 1 1 0.0000000000000000e+00 9.0999999999999996e+00 1.2124400000000000e+01 5.0000000000000000e+00 0 0 0
311 1 1 0.0000000000000000e+00 1.0500000000000000e+01 1.2124400000000000e+01 5.0000000000000000e+00 0 0 0
314 1 1 0.0000000000000000e+00 1.3300000000000001e+01 1.2124400000000000e+01 5.0000000000000000e+00 0 0 0
195 1 1 0.0000000000000000e+00 1.4699999999999999e+01 7.2746000000000004e+00 5.0000000000000000e+00 0 0 0
196 1 1 0.0000000000000000e+00 1.5400000000000000e+01 8.4870000000000001e+00 5.0000000000000000e+00 0 0 0
255 1 1 0.0000000000000000e+00 1.4699999999999999e+01 9.6995000000000005e+00 5.0000000000000000e+00 0 0 0
256 1 1 0.0000000000000000e+00 1.5400000000000000e+01 1.0911899999999999e+01 5.0000000000000000e+00 0 0 0
315 1 1 0.0000000000000000e+00 1.4699999999999999e+01 1.2124400000000000e+01 5.0000000000000000e+00 0 0 0
301 1 1 0.0000000000000000e+00 0.0000000000000000e+00 1.3336800000000000e+01 5.0000000000000000e+00 0 0 0
304 1 1 0.0000000000000000e+00 2.7999999999999998e+00 1.3336800000000000e+01 5.0000000000000000e+00 0 0 0
305 1 1 0.0000000000000000e+00 4.2000000000000002e+00 1.3336800000000000e+01 5.0000000000000000e+00 0 0 0
308 1 1 0.0000000000000000e+00 7.0000000000000000e+00 1.3336800000000000e+01 5.0000000000000000e+00 0 0 0
361 1 1 0.0000000000000000e+00 0.0000000000000000e+00 1.5761699999999999e+01 5.0000000000000000e+00 0 0 0
362 1 1 0.0000000000000000e+00 6.9999999999999996e-01 1.4549200000000001e+01 5.0000000000000000e+00 0 0 0
363 1 1 0.0000000000000000e+00 2.1000000000000001e+00 1.4549200000000001e+01 5.0000000000000000e+00 0 0 0
364 1 1 0.0000000000000000e+00 2.7999999999999998e+00 1.5761699999999999e+01 5.0000000000000000e+00 0 0 0
365 1 1 0.0000000000000000e+00 4.2000000000000002e+00 1.5761699999999999e+01 5.0000000000000000e+00 0 0 0
366 1 1 0.0000000000000000e+00 4.9000000000000004e+00 1.4549200000000001e+01 5.0000000000000000e+00 0 0 0
367 1 1 0.0000000000000000e+00 6.2999999999999998e+00 1.4549200000000001e+01 5.0000000000000000e+00 0 0 0
421 1 1 0.0000000000000000e+00 0.0000000000000000e+00 1.8186499999999999e+01 5.0000000000000000e+00 0 0 0
422 1 1 0.0000000000000000e+00 6.9999999999999996e-01 1.6974100000000000e+01 5.0000000000000000e+00 0 0 0
423 1 1 0.0000000000000000e+00 2.1000000000000001e+00 1.6974100000000000e+01 5.0000000000000000e+00 0 0 0
424 1 1 0.0000000000000000e+00 2.7999999999999998e+00 1.8186499999999999e+01 5.0000000000000000e+00 0 0 0
425 1 1 0.0000000000000000e+00 4.2000000000000002e+00 1.8186499999999999e+01 5.0000000000000000e+00 0 0 0
426 1 1 0.0000000000000000e+00 4.9000000000000004e+00 1.6974100000000000e+01 5.0000000000000000e+00 0 0 0
427 1 1 0.0000000000000000e+00 6.2999999999999998e+00 1.6974100000000000e+01 5.0000000000000000e+00 0 0 0
368 1 1 0.0000000000000000e+00 7.0000000000000000e+00 1.5761699999999999e+01 5.0000000000000000e+00 0 0 0
428 1 1 0.0000000000000000e+00 7.0000000000000000e+00 1.8186499999999999e+01 5.0000000000000000e+00 0 0 0
309 1 1 0.0000000000000000e+00 8.4000000000000004e+00 1.3336800000000000e+01 5.0000000000000000e+00 0 0 0
312 1 1 0.0000000000000000e+00 1.1199999999999999e+01 1.3336800000000000e+01 5.0000000000000000e+00 0 0 0
313 1 1 0.0000000000000000e+00 1.2600000000000000e+01 1.3336800000000000e+01 5.0000000000000000e+00 0 0 0
316 1 1 0.0000000000000000e+00 1.5400000000000000e+01 1.3336800000000000e+01 5.0000000000000000e+00 0 0 0
369 1 1 0.0000000000000000e+00 8.4000000000000004e+00 1.5761699999999999e+01 5.0000000000000000e+00 0 0 0
370 1 1 0.0000000000000000e+00 9.0999999999999996e+00 1.4549200000000001e+01 5.0000000000000000e+00 0 0 0
371 1 1 0.0000000000000000e+00 1.0500000000000000e+01 1.4549200000000001e+01 5.0000000000000000e+00 0 0 0
372 1 1 0.0000000000000000e+00 1.1199999999999999e+01 1.5761699999999999e+01 5.0000000000000000e+00 0 0 0
373 1 1 0.0000000000000000e+00 1.2600000000000000e+01 1.5761699999999999e+01 5.0000000000000000e+00 0 0 0
374 1 1 0.0000000000000000e+00 1.3300000000000001e+01 1.4549200000000001e+01 5.0000000000000000e+00 0 0 0
429 1 1 0.0000000000000000e+00 8.4000000000000004e+00 1.8186499999999999e+01 5.0000000000000000e+00 0 0 0
430 1 1 0.0000000000000000e+00 9.0999999999999996e+00 1.6974100000000000e+01 5.0000000000000000e+00 0 0 0
431 1 1 0.0000000000000000e+00 1.0500000000000000e+01 1.6974100000000000e+01 5.0000000000000000e+00 0 0 0
432 1 1 0.0000000000000000e+00 1.1199999999999999e+01 1.8186499999999999e+01 5.0000000000000000e+00 0 0 0
433 1 1 0.0000000000000000e+00 1.2600000000000000e+01 1.8186499999999999e+01 5.0000000000000000e+00 0 0 0
434 1 1 0.0000000000000000e+00 1.3300000000000001e+01 1.6974100000000000e+01 5.0000000000000000e+00 0 0 0
375 1 1 0.0000000000000000e+00 1.4699999999999999e+01 1.4549200000000001e+01 5.0000000000000000e+00 0 0 0
376 1 1 0.0000000000000000e+00 1.5400000000000000e+01 1.5761699999999999e+01 5.0000000000000000e+00 0 0 0
435 1 1 0.0000000000000000e+00 1.4699999999999999e+01 1.6974100000000000e+01 5.0000000000000000e+00 0 0 0
436 1 1 0.0000000000000000e+00 1.5400000000000000e+01 1.8186499999999999e+01 5.0000000000000000e+00 0 0 0
9576 1354 8 -8.4719999999999995e-01 3.2327876257170209e+00 5.3113225061035285e+00 8.2250218985887571e+00 0 0 0
5548 12 7 4.2359999999999998e-01 3.2241178992379838e+00 4.5391834889203766e+00 1.1571942854464183e+01 0 -1 0
9414 1300 8 -8.4719999999999995e-01 3.0587499154527524e+00 2.4924889290020551e+00 8.8082130186986003e+00 0 2 0
5549 12 7 4.2359999999999998e-01 2.0134430404865333e+00 5.4930971410849425e+00 1.1032552775478695e+01 0 -1 0
5550 12 8 -8.4719999999999995e-01 3.0014240697026850e+00 5.3394937369629778e+00 1.1015246352348388e+01 0 -1 0
9413 1300 7 4.2359999999999998e-01 2.9628065692332304e+00 3.4803576810475940e+00 8.6861040212182807e+00 0 2 0
9987 1491 8 -8.4719999999999995e-01 3.4721953284486742e+00 2.6697242121732310e+00 1.1647995909495263e+01 0 0 0
9914 1467 7 4.2359999999999998e-01 5.4254418733948588e+00 7.2836824693420588e-01 1.0320843292756797e+01 1 -1 0
9575 1354 7 4.2359999999999998e-01 4.1759861731727570e+00 5.1074133690600334e+00 7.9627288002575973e+00 0 0 0
9574 1354 7 4.2359999999999998e-01 3.1355345112674877e+00 5.2211280522883863e+00 9.2161866010240203e+00 0 0 0
6821 436 7 4.2359999999999998e-01 4.7256393388895939e+00 5.9568868509460717e+00 1.0694844428045148e+01 -2 0 0
9986 1491 7 4.2359999999999998e-01 4.0318231780842977e+00 2.0439257348966784e+00 1.2191313273519290e+01 0 0 0
9532 1340 7 4.2359999999999998e-01 3.6500373354980420e-01 4.6561803857269063e-01 8.7454907062748539e+00 0 0 0
9809 1432 7 4.2359999999999998e-01 1.4184114939750327e+00 1.9864056526723457e+00 1.2093631345777657e+01 -1 0 0
9810 1432 8 -8.4719999999999995e-01 6.7314145504516765e-01 2.2710181235986320e+00 1.1490664754514832e+01 -1 0 0
7497 661 8 -8.4719999999999995e-01 2.6559793218913669e-01 5.0184815160506373e+00 1.1736115840394220e+01 0 1 0
8576 1021 7 4.2359999999999998e-01 7.0496697605975243e+00 6.0139870185404662e+00 8.1312300887128828e+00 0 1 0
5935 141 7 4.2359999999999998e-01 6.8291398715353324e+00 1.7725962091849092e+00 8.2942602108339116e+00 1 0 0
9412 1300 7 4.2359999999999998e-01 4.0028145321867283e+00 2.2232381992375037e+00 8.6178280412555619e+00 0 2 0
7540 676 7 4.2359999999999998e-01 7.1258326951526083e+00 5.2680683662137229e+00 1.0857965810287734e+01 1 1 0
9808 1432 7 4.2359999999999998e-01 7.9016477569755073e-01 1.8464839757678853e+00 1.0592846554003922e+01 -1 0 0
9534 1340 8 -8.4719999999999995e-01 4.8116645120582707e-01 1.4544467084412038e+00 8.8388952514248178e+00 0 0 0
5937 141 8 -8.4719999999999995e-01 7.7499023026274081e+00 2.1556706794699134e+00 8.2204269111304029e+00 1 0 0
9915 1467 8 -8.4719999999999995e-01 5.5402441332473353e+00 9.5770777103317817e-01 9.3542907239415900e+00 1 -1 0
7542 676 8 -8.4719999999999995e-01 7.8700271444558414e+00 4.9416560440281403e+00 1.1440743336338668e+01 1 1 0
9533 1340 7 4.2359999999999998e-01 1.3924169175200058e+00 1.7146331715778529e+00 8.5196355598455256e+00 0 0 0
8556 1014 8 -8.4719999999999995e-01 4.7477204099625077e+00 2.1578795219258162e-01 1.1827435926639854e+01 1 -1 0
9985 1491 7 4.2359999999999998e-01 3.5678814337401250e+00 2.4458397110381007e+00 1.0678088306791217e+01 0 0 0
7495 661 7 4.2359999999999998e-01 5.8912841585680253e-01 4.0745136914653930e+00 1.1801329335113468e+01 0 1 0
9913 1467 7 4.2359999999999998e-01 5.0419622328356670e+00 2.9656996483132547e-01 8.7933878529394516e+00 1 -1 0
5761 83 7 4.2359999999999998e-01 7.9889052915166143e+00 3.0256955029367227e+00 1.1776213044787026e+01 0 0 0
7907 798 7 4.2359999999999998e-01 1.4189529425686178e+01 1.1990777696749968e+00 8.2108715458602521e+00 0 0 0
5763 83 8 -8.4719999999999995e-01 8.4959356312264855e+00 2.1887744874754680e+00 1.1570097860793512e+01 0 0 0
5936 141 7 4.2359999999999998e-01 8.4092571018965110e+00 1.5175668158383695e+00 8.6180134546147507e+00 1 0 0
6140 209 7 4.2359999999999998e-01 1.3807664586645183e+01 3.0227548985354487e+00 1.0683677749349995e+01 0 1 0
5762 83 7 4.2359999999999998e-01 9.4635766564121671e+00 2.3243213122895914e+00 1.1782931009752350e+01 0 0 0
7813 767 7 4.2359999999999998e-01 8.0013870616732863e+00 3.9038116380735990e+00 8.2765014334717542e+00 2 1 0
7815 767 8 -8.4719999999999995e-01 8.1888495740563254e+00 4.7632032767886976e+00 8.7522155268540196e+00 2 1 0
7814 767 7 4.2359999999999998e-01 8.0632304139381201e+00 4.6339696450861014e+00 9.7358407325915284e+00 2 1 0
9900 1462 8 -8.4719999999999995e-01 1.1088694489237541e+01 2.8136296887731849e+00 1.1686803618570764e+01 0 1 0
9898 1462 7 4.2359999999999998e-01 1.1935603544556036e+01 2.2826098194876985e+00 1.1714425922886949e+01 0 1 0
5688 58 8 -8.4719999999999995e-01 1.3210237919035880e+01 1.3869697454085155e+00 1.1868324631636490e+01 0 -1 0
9302 1263 7 4.2359999999999998e-01 1.1023115691113963e+01 5.5012534313217252e+00 8.9513327191613730e+00 2 0 0
8939 1142 7 4.2359999999999998e-01 1.1229241823457281e+01 2.5694453052282453e+00 9.4735710451161825e+00 0 -1 0
8940 1142 8 -8.4719999999999995e-01 1.1319781532184935e+01 1.8713001897263244e+00 8.7633624071923570e+00 0 -1 0
5687 58 7 4.2359999999999998e-01 1.4195432773658348e+01 1.4585199218799205e+00 1.2024120817405752e+01 0 -1 0
9899 1462 7 4.2359999999999998e-01 1.1234980851457195e+01 3.6977107041882893e+00 1.2130651643304542e+01 0 1 0
8935 1141 7 4.2359999999999998e-01 1.2298745451444418e+01 4.7190895770146774e-01 8.8895717223467976e+00 0 1 0
5686 58 7 4.2359999999999998e-01 1.2939278109123228e+01 4.2451205314660856e-01 1.1884367528424006e+01 0 -1 0
6141 209 8 -8.4719999999999995e-01 1.4141578116826523e+01 3.7521927052751454e+00 1.0086666323129824e+01 0 1 0
6139 209 7 4.2359999999999998e-01 1.3408223063602575e+01 4.0412031966095325e+00 9.4713096713940264e+00 0 1 0
8938 1142 7 4.2359999999999998e-01 1.1446775558498407e+01 2.3135434824888699e+00 7.8755034815682308e+00 0 -1 0
7908 798 8 -8.4719999999999995e-01 1.4827937368651744e+01 1.9685786222832469e+00 8.1934403645217415e+00 0 0 0
7491 659 8 -8.4719999999999995e-01 1.1308647781707402e+01 5.4979433273110052e+00 1.2119359722250570e+01 1 0 0
9303 1263 8 -8.4719999999999995e-01 1.1721995007186839e+01 4.8833345675443240e+00 9.3115326727726462e+00 2 0 0
7490 659 7 4.2359999999999998e-01 1.0469189511490102e+01 6.0228210408682976e+00 1.2260119188187785e+01 1 0 0
7489 659 7 4.2359999999999998e-01 1.2098090378246495e+01 6.1084761761618953e+00 1.2182842612668120e+01 1 0 0
8464 984 7 4.2359999999999998e-01 1.2999466704854049e+01 5.8329927700276238e+00 8.2668541498645780e+00 1 0 0
9301 1263 7 4.2359999999999998e-01 1.1695757857057631e+01 4.8969170858240876e+00 1.0311096163357425e+01 2 0 0
7541 676 7 4.2359999999999998e-01 7.8931058923646429e+00 5.4786778255365842e+00 1.2283995962245978e+01 1 1 0
7906 798 7 4.2359999999999998e-01 1.4658804741646614e+01 2.5599139418145329e+00 8.9819309405367829e+00 0 0 0
8945 1144 7 4.2359999999999998e-01 8.5264375672245052e+00 6.4944807433001317e-01 1.0982151681377371e+01 -2 0 0
9319 1269 7 4.2359999999999998e-01 1.5512302075046593e+01 5.0657303720624061e+00 1.0735576463961999e+01 1 0 0
6820 436 7 4.2359999999999998e-01 5.8289915319717585e+00 6.6283767638416622e+00 9.6956738993114087e+00 -2 0 0
6822 436 8 -8.4719999999999995e-01 5.6654558394793613e+00 6.2908584757304755e+00 1.0622678496521605e+01 -2 0 0
8577 1021 8 -8.4719999999999995e-01 6.2638981002402039e+00 6.6302925577258538e+00 8.0789701684047515e+00 0 1 0
8079 855 8 -8.4719999999999995e-01 3.6830380394929751e-01 8.3928318422496044e+00 1.1670978964887720e+01 1 0 0
8078 855 7 4.2359999999999998e-01 4.0500139374746330e-01 7.4114782642530423e+00 1.1859655265735849e+01 1 0 0
6959 482 7 4.2359999999999998e-01 2.6165293819087876e+00 9.2863149121048316e+00 1.2381979878362120e+01 2 0 0
8575 1021 7 4.2359999999999998e-01 6.5808660749213939e+00 7.5588708081444800e+00 7.8859035017343473e+00 0 1 0
6960 482 8 -8.4719999999999995e-01 3.3428815804076293e+00 9.4024134771092296e+00 1.1704533448728016e+01 2 0 0
7240 576 7 4.2359999999999998e-01 8.9688023526819649e-01 7.4834848276999697e+00 7.9384555944917574e+00 1 1 0
6492 326 8 -8.4719999999999995e-01 7.2089477603731638e+00 9.4474470544353455e+00 7.8677635637987802e+00 1 -1 0
6491 326 7 4.2359999999999998e-01 6.6194678821351776e+00 1.0178628955976246e+01 7.5244174924528675e+00 1 -1 0
7242 576 8 -8.4719999999999995e-01 1.8257057575200579e+00 7.7158353145688796e+00 8.2270668438414702e+00 1 1 0
7241 576 7 4.2359999999999998e-01 2.4235537246396044e+00 6.9252857392513816e+00 8.0943670382317272e+00 1 1 0
8050 846 7 4.2359999999999998e-01 4.4200799778948427e+00 1.1855489618282377e+01 1.0591299057302697e+01 1 1 0
10034 1516 9 1.0000000000000000e+00 1.1193668875805254e+00 9.4830889283921511e+00 9.7125695765987032e+00 0 0 0
6945 477 8 -8.4719999999999995e-01 2.6034738836455560e+00 1.0573542370398329e+01 8.2930121883856227e+00 -2 2 0
8052 846 8 -8.4719999999999995e-01 3.8920763231660453e+00 1.1992455642052818e+01 1.1429424012741721e+01 1 1 0
6943 477 7 4.2359999999999998e-01 2.8671359306687596e+00 9.9180592332838042e+00 7.5853227282976343e+00 -2 2 0
6944 477 7 4.2359999999999998e-01 3.2752215171733434e+00 1.1313450893482814e+01 8.3289456127370833e+00 -2 2 0
9684 1390 8 -8.4719999999999995e-01 6.6436779329346383e+00 1.0862327799791503e+01 1.0978154702453919e+01 -1 1 0
9683 1390 7 4.2359999999999998e-01 6.3997756004374908e+00 1.0077875489113191e+01 1.1548370657868738e+01 -1 1 0
9110 1199 7 4.2359999999999998e-01 6.1069296502343988e+00 7.4922935129692574e+00 1.1673972172818489e+01 1 1 0
9111 1199 8 -8.4719999999999995e-01 6.5101086604417375e+00 8.3109194368301260e+00 1.2082993339573397e+01 1 1 0
9682 1390 7 4.2359999999999998e-01 7.6264372711629322e+00 1.1033126897561207e+01 1.1048948597654089e+01 -1 1 0
6936 474 8 -8.4719999999999995e-01 5.1648829465966175e+00 1.1867313637156171e+01 8.7491196999589906e+00 1 1 0
6934 474 7 4.2359999999999998e-01 5.8833585677649296e+00 1.1337927333377429e+01 9.2002778553363349e+00 1 1 0
5970 152 8 -8.4719999999999995e-01 9.7971349294849508e-01 1.1891210471558139e+01 1.1051017851230025e+01 -1 2 0
5969 152 7 4.2359999999999998e-01 1.6970730236056859e+00 1.1779126442264541e+01 1.1738646343136322e+01 -1 2 0
6958 482 7 4.2359999999999998e-01 3.6321189864726571e+00 1.0359504750644152e+01 1.1686660687412395e+01 2 0 0
6490 326 7 4.2359999999999998e-01 8.1129569498846230e+00 9.8193845051580979e+00 8.0785477472621583e+00 1 -1 0
7007 498 7 4.2359999999999998e-01 1.4548107678955414e+01 9.6895533825448279e+00 1.0677456496567583e+01 0 0 0
7692 726 8 -8.4719999999999995e-01 9.4324767948544341e+00 7.0930221111965901e+00 9.0617664379141161e+00 2 0 0
7691 726 7 4.2359999999999998e-01 8.9366272463607128e+00 6.2579989404548630e+00 8.8232901142329201e+00 2 0 0
7690 726 7 4.2359999999999998e-01 8.8583127619316056e+00 7.8884898243680297e+00 8.8679444229076427e+00 2 0 0
8269 919 7 4.2359999999999998e-01 1.3301494437566870e+01 8.2015038393872484e+00 8.9104841844492952e+00 0 1 0
8466 984 8 -8.4719999999999995e-01 1.3587100071450536e+01 6.6405145933975369e+00 8.2159043472687170e+00 1 0 0
7580 689 7 4.2359999999999998e-01 8.4640505849002032e+00 8.2403995747168128e+00 1.1841341559270880e+01 1 0 0
7581 689 8 -8.4719999999999995e-01 9.4002837070305780e+00 7.9038139328353640e+00 1.1740453801329281e+01 1 0 0
7579 689 7 4.2359999999999998e-01 9.5034428602979997e+00 7.4685613975020066e+00 1.0846074439038128e+01 1 0 0
9189 1225 8 -8.4719999999999995e-01 1.2275419862082865e+01 1.0953595129814307e+01 7.8876235480877739e+00 -3 0 0
9188 1225 7 4.2359999999999998e-01 1.2231494558130715e+01 1.1950794320810473e+01 7.9481627731019406e+00 -3 0 0
8271 919 8 -8.4719999999999995e-01 1.3325111461562406e+01 9.0765249355500917e+00 9.3939925710850929e+00 0 1 0
8270 919 7 4.2359999999999998e-01 1.2973692832053487e+01 9.7971685263224195e+00 8.7963490054215949e+00 0 1 0
5527 5 7 4.2359999999999998e-01 1.2674532771742847e+01 9.8084454033161865e+00 1.0696694625970681e+01 3 1 0
5528 5 7 4.2359999999999998e-01 1.1942560133800669e+01 9.4636576516006556e+00 1.2115131790844240e+01 3 1 0
5529 5 8 -8.4719999999999995e-01 1.2326327979774852e+01 1.0194635026911085e+01 1.1550867370830801e+01 3 1 0
6693 393 8 -8.4719999999999995e-01 1.3382878009369396e+01 7.1811310636638392e+00 1.1899783621857432e+01 2 0 0
6691 393 7 4.2359999999999998e-01 1.3463415976980002e+01 6.9530280518214882e+00 1.0929483189370911e+01 2 0 0
8465 984 7 4.2359999999999998e-01 1.4537281779943912e+01 6.3540730170725066e+00 8.0929941336113380e+00 1 0 0
6692 393 7 4.2359999999999998e-01 1.4122214772610292e+01 7.8027679797910485e+00 1.2158528636047629e+01 2 0 0
7218 568 8 -8.4719999999999995e-01 9.2621549108235861e+00 1.0823944048006275e+01 1.1209905115807340e+01 1 -1 0
7216 568 7 4.2359999999999998e-01 9.6302567570589268e+00 1.1600845880657687e+01 1.1720714578611132e+01 1 -1 0
6399 295 8 -8.4719999999999995e-01 9.4949919594695089e+00 1.0546949855617436e+01 8.4287818797990059e+00 0 0 0
6398 295 7 4.2359999999999998e-01 9.3780054273390885e+00 1.0789864745548186e+01 9.3917501394427916e+00 0 0 0
9187 1225 7 4.2359999999999998e-01 1.2104345784166236e+01 1.0669076422825325e+01 6.9443404603044021e+00 -3 0 0
6397 295 7 4.2359999999999998e-01 1.0470111650700135e+01 1.0512603693154389e+01 8.2097783629507735e+00 0 0 0
7739 742 7 4.2359999999999998e-01 1.2873821002705753e+01 1.1825516194366950e+01 1.1656732188920875e+01 0 -1 0
7217 568 7 4.2359999999999998e-01 9.7146551299775918e+00 9.9838441585453950e+00 1.1509030792578404e+01 1 -1 0
7008 498 8 -8.4719999999999995e-01 1.5472021105761053e+01 9.6067866902181596e+00 1.1050999453462593e+01 0 0 0
7699 729 7 4.2359999999999998e-01 2.2065902991075146e+00 1.7059915285710392e+01 1.1595123920459580e+01 0 0 0
6598 362 7 4.2359999999999998e-01 3.4943456354255771e+00 1.7478019290452888e+01 9.1049738445125019e+00 1 1 0
9523 1337 7 4.2359999999999998e-01 7.0000514030019119e+00 1.7203764426065693e+01 1.1956201328181908e+01 -1 0 0
7700 729 7 4.2359999999999998e-01 1.2834078789680183e+00 1.7678347745670099e+01 1.0398502836924997e+01 0 0 0
6023 170 7 4.2359999999999998e-01 3.4739344643083886e-01 1.4765054882879141e+01 8.8998766605235229e+00 1 1 0
8051 846 7 4.2359999999999998e-01 4.1640090675684904e+00 1.2854273664054105e+01 1.1857586953454121e+01 1 1 0
8241 909 8 -8.4719999999999995e-01 3.7377099580284754e+00 1.8111053001517892e+01 1.1965823186405418e+01 0 0 0
5968 152 7 4.2359999999999998e-01 1.2123205305377995e+00 1.2654278256191310e+01 1.0448006587056817e+01 -1 2 0
6296 261 7 4.2359999999999998e-01 7.3441858794104355e+00 1.6752727788746650e+01 7.5311807707732816e+00 2 -1 0
8240 909 7 4.2359999999999998e-01 4.6174548120854935e+00 1.7643366619935072e+01 1.2051374415202712e+01 0 0 0
6935 474 7 4.2359999999999998e-01 5.4597312600523482e+00 1.2818383430849071e+01 8.6567556293085666e+00 1 1 0
5632 40 7 4.2359999999999998e-01 5.1376789285484703e+00 1.4679157365459305e+01 9.2517121945206089e+00 2 0 0
8850 1112 8 -8.4719999999999995e-01 3.3712840229339691e+00 1.4772369152612201e+01 8.0763315935455218e+00 2 1 0
8849 1112 7 4.2359999999999998e-01 2.3889399509538407e+00 1.4824803906543080e+01 8.2559169194727708e+00 2 1 0
8848 1112 7 4.2359999999999998e-01 3.6942423697328666e+00 1.5653051284123288e+01 7.7297814745497382e+00 2 1 0
5633 40 7 4.2359999999999998e-01 6.2740618629708420e+00 1.4541163171149751e+01 1.0416280022796762e+01 2 0 0
5634 40 8 -8.4719999999999995e-01 6.1164288327972294e+00 1.4576851537490198e+01 9.4294271444060431e+00 2 0 0
6237 241 8 -8.4719999999999995e-01 4.1250123502266751e+00 1.4813457245295647e+01 1.1931864573577402e+01 1 1 0