 vasp.5.4.4.18Apr17-6-g9f103f2a35 (build Apr 11 2019 18:12:45) complex          
  
 executed on             LinuxIFC date 2019.08.01  09:13:37
 running on   24 total cores
 distrk:  each k-point on   24 cores,    1 groups
 distr:  one band on NCORES_PER_BAND=   1 cores,   24 groups


--------------------------------------------------------------------------------------------------------


 INCAR:
 POTCAR:   PAW_PBE C 08Apr2002                    

 ----------------------------------------------------------------------------- 
|                                                                             |
|           W    W    AA    RRRRR   N    N  II  N    N   GGGG   !!!           |
|           W    W   A  A   R    R  NN   N  II  NN   N  G    G  !!!           |
|           W    W  A    A  R    R  N N  N  II  N N  N  G       !!!           |
|           W WW W  AAAAAA  RRRRR   N  N N  II  N  N N  G  GGG   !            |
|           WW  WW  A    A  R   R   N   NN  II  N   NN  G    G                |
|           W    W  A    A  R    R  N    N  II  N    N   GGGG   !!!           |
|                                                                             |
|      For optimal performance we recommend to set                            |
|        NCORE= 4 - approx SQRT( number of cores)                             |
|      NCORE specifies how many cores store one orbital (NPAR=cpu/NCORE).     |
|      This setting can  greatly improve the performance of VASP for DFT.     |
|      The default,   NCORE=1            might be grossly inefficient         |
|      on modern multi-core architectures or massively parallel machines.     |
|      Do your own testing !!!!                                               |
|      Unfortunately you need to use the default for GW and RPA calculations. |
|      (for HF NCORE is supported but not extensively tested yet)             |
|                                                                             |
 ----------------------------------------------------------------------------- 

 POTCAR:   PAW_PBE C 08Apr2002                    
   VRHFIN =C: s2p2                                                              
   LEXCH  = PE                                                                  
   EATOM  =   147.1560 eV,   10.8157 Ry                                         
                                                                                
   TITEL  = PAW_PBE C 08Apr2002                                                 
   LULTRA =        F    use ultrasoft PP ?                                      
   IUNSCR =        0    unscreen: 0-lin 1-nonlin 2-no                           
   RPACOR =     .000    partial core radius                                     
   POMASS =   12.011; ZVAL   =    4.000    mass and valenz                      
   RCORE  =    1.500    outmost cutoff radius                                   
   RWIGS  =    1.630; RWIGS  =     .863    wigner-seitz radius (au A)           
   ENMAX  =  400.000; ENMIN  =  300.000 eV                                      
   ICORE  =        2    local potential                                         
   LCOR   =        T    correct aug charges                                     
   LPAW   =        T    paw PP                                                  
   EAUG   =  644.873                                                            
   DEXC   =     .000                                                            
   RMAX   =    2.266    core radius for proj-oper                               
   RAUG   =    1.300    factor for augmentation sphere                          
   RDEP   =    1.501    radius for radial grids                                 
   RDEPT  =    1.300    core radius for aug-charge                              
   QCUT   =   -5.516; QGAM   =   11.032    optimization parameters              
                                                                                
   Description                                                                  
     l     E      TYP  RCUT    TYP  RCUT                                        
     0   .000     23  1.200                                                     
     0   .000     23  1.200                                                     
     1   .000     23  1.500                                                     
     1  2.500     23  1.500                                                     
     2   .000      7  1.500                                                     
  local pseudopotential read in
  atomic valenz-charges read in
  non local Contribution for L=           0  read in
    real space projection operators read in
  non local Contribution for L=           0  read in
    real space projection operators read in
  non local Contribution for L=           1  read in
    real space projection operators read in
  non local Contribution for L=           1  read in
    real space projection operators read in
    PAW grid and wavefunctions read in
 
   number of l-projection  operators is LMAX  =           4
   number of lm-projection operators is LMMAX =           8
 
 Optimization of the real space projectors (new method)

 maximal supplied QI-value         = 25.13
 optimisation between [QCUT,QGAM] = [ 11.31, 28.40] = [ 35.82,225.87] Ry 
 Optimized for a Real-space Cutoff    0.93 Angstroem

   l    n(q)    QCUT    max X(q) W(low)/X(q) W(high)/X(q)  e(spline) 
   0      8    11.310     5.582    0.36E-04    0.13E-04    0.14E-07
   0      8    11.310    69.432    0.28E-03    0.21E-03    0.11E-06
   1      7    11.310     2.780    0.37E-04    0.49E-04    0.22E-07
   1      7    11.310     4.549    0.27E-03    0.38E-03    0.91E-07
 PAW_PBE C 08Apr2002                    :
 energy of atom  1       EATOM= -147.1560
 kinetic energy error for atom=    0.0076 (will be added to EATOM!!)
 
 
 POSCAR: graphene+Na                             
  positions in direct lattice
  No initial velocities read in
 exchange correlation table for  LEXCH =        8
   RHO(1)=    0.500       N(1)  =     2000
   RHO(2)=  100.500       N(2)  =     4000
 


--------------------------------------------------------------------------------------------------------


 ion  position               nearest neighbor table
   1  0.166  0.083  0.500-  29 1.42  18 1.42  17 1.43
   2  0.417  0.083  0.500-  30 1.42  18 1.42  19 1.43
   3  0.667  0.083  0.500-  19 1.42  31 1.42  20 1.42
   4  0.917  0.083  0.500-  17 1.42  32 1.42  20 1.42
   5  0.166  0.333  0.500-  17 1.42  21 1.42  22 1.43
   6  0.416  0.333  0.499-  18 1.43  22 1.43  23 1.43
   7  0.667  0.333  0.500-  24 1.42  19 1.42  23 1.43
   8  0.917  0.333  0.500-  24 1.42  21 1.42  20 1.42
   9  0.166  0.583  0.500-  25 1.42  26 1.42  21 1.43
  10  0.416  0.584  0.499-  26 1.43  27 1.43  22 1.43
  11  0.667  0.584  0.499-  28 1.43  27 1.43  23 1.43
  12  0.917  0.583  0.500-  25 1.42  28 1.42  24 1.43
  13  0.167  0.833  0.500-  25 1.42  29 1.42  30 1.42
  14  0.417  0.834  0.500-  30 1.42  26 1.42  31 1.43
  15  0.667  0.834  0.500-  32 1.42  31 1.42  27 1.43
  16  0.917  0.834  0.500-  29 1.42  28 1.42  32 1.43
  17  0.083  0.166  0.500-   4 1.42   5 1.42   1 1.43
  18  0.333  0.166  0.500-   2 1.42   1 1.42   6 1.43
  19  0.583  0.166  0.500-   3 1.42   7 1.42   2 1.43
  20  0.833  0.167  0.500-   3 1.42   4 1.42   8 1.42
  21  0.083  0.417  0.500-   8 1.42   5 1.42   9 1.43
  22  0.333  0.416  0.499-   5 1.43   6 1.43  10 1.43
  23  0.584  0.416  0.499-   7 1.43  11 1.43   6 1.43
  24  0.834  0.417  0.500-   8 1.42   7 1.42  12 1.43
  25  0.083  0.667  0.500-   9 1.42  12 1.42  13 1.42
  26  0.333  0.667  0.500-  14 1.42   9 1.42  10 1.43
  27  0.584  0.667  0.499-  15 1.43  11 1.43  10 1.43
  28  0.834  0.667  0.500-  12 1.42  16 1.42  11 1.43
  29  0.083  0.917  0.500-   1 1.42  16 1.42  13 1.42
  30  0.333  0.917  0.500-  14 1.42   2 1.42  13 1.42
  31  0.583  0.917  0.500-   3 1.42  15 1.42  14 1.43
  32  0.834  0.917  0.500-   4 1.42  15 1.42  16 1.43
 
  LATTYP: Found a hexagonal cell.
 ALAT       =     9.8742351532
 C/A-ratio  =     2.0254733344
  
  Lattice vectors:
  
 A1 = (   9.8742351532,   0.0000000000,   0.0000000000)
 A2 = (  -4.9371175766,   8.5513384856,   0.0000000000)
 A3 = (   0.0000000000,   0.0000000000,  20.0000000000)


Analysis of symmetry for initial positions (statically):
=====================================================================
 Subroutine PRICEL returns:
 Original cell was already a primitive cell.
 

 Routine SETGRP: Setting up the symmetry group for a 
 hexagonal supercell.


 Subroutine GETGRP returns: Found  1 space group operations
 (whereof  1 operations were pure point group operations)
 out of a pool of 24 trial point group operations.


The static configuration has the point symmetry C_1 .


Analysis of symmetry for dynamics (positions and initial velocities):
=====================================================================
 Subroutine PRICEL returns:
 Original cell was already a primitive cell.
 

 Routine SETGRP: Setting up the symmetry group for a 
 hexagonal supercell.


 Subroutine GETGRP returns: Found  1 space group operations
 (whereof  1 operations were pure point group operations)
 out of a pool of 24 trial point group operations.


The dynamic configuration has the point symmetry C_1 .


Analysis of constrained symmetry for selective dynamics:
=====================================================================
 Subroutine PRICEL returns:
 Original cell was already a primitive cell.
 

 Routine SETGRP: Setting up the symmetry group for a 
 hexagonal supercell.


 Subroutine GETGRP returns: Found  1 space group operations
 (whereof  1 operations were pure point group operations)
 out of a pool of 24 trial point group operations.


The constrained configuration has the point symmetry C_1 .


 Subroutine INISYM returns: Found  1 space group operations
 (whereof  1 operations are pure point group operations),
 and found     1 'primitive' translations

 
 
 KPOINTS: Automatic mesh                          

Automatic generation of k-mesh.
Space group operators:
 irot       det(A)        alpha          n_x          n_y          n_z        tau_x        tau_y        tau_z
    1     1.000000     0.000000     1.000000     0.000000     0.000000     0.000000     0.000000     0.000000
 
 Subroutine IBZKPT returns following result:
 ===========================================
 
 Found     41 irreducible k-points:
 
 Following reciprocal coordinates:
            Coordinates               Weight
  0.000000  0.000000  0.000000      1.000000
  0.111111  0.000000  0.000000      2.000000
  0.222222  0.000000  0.000000      2.000000
  0.333333  0.000000  0.000000      2.000000
  0.444444  0.000000  0.000000      2.000000
  0.000000  0.111111  0.000000      2.000000
  0.111111  0.111111  0.000000      2.000000
  0.222222  0.111111  0.000000      2.000000
  0.333333  0.111111  0.000000      2.000000
  0.444444  0.111111  0.000000      2.000000
 -0.444444  0.111111  0.000000      2.000000
 -0.333333  0.111111  0.000000      2.000000
 -0.222222  0.111111  0.000000      2.000000
 -0.111111  0.111111  0.000000      2.000000
  0.000000  0.222222  0.000000      2.000000
  0.111111  0.222222  0.000000      2.000000
  0.222222  0.222222  0.000000      2.000000
  0.333333  0.222222  0.000000      2.000000
  0.444444  0.222222  0.000000      2.000000
 -0.444444  0.222222  0.000000      2.000000
 -0.333333  0.222222  0.000000      2.000000
 -0.222222  0.222222  0.000000      2.000000
 -0.111111  0.222222  0.000000      2.000000
  0.000000  0.333333  0.000000      2.000000
  0.111111  0.333333  0.000000      2.000000
  0.222222  0.333333  0.000000      2.000000
  0.333333  0.333333  0.000000      2.000000
  0.444444  0.333333  0.000000      2.000000
 -0.444444  0.333333  0.000000      2.000000
 -0.333333  0.333333  0.000000      2.000000
 -0.222222  0.333333  0.000000      2.000000
 -0.111111  0.333333  0.000000      2.000000
  0.000000  0.444444  0.000000      2.000000
  0.111111  0.444444  0.000000      2.000000
  0.222222  0.444444  0.000000      2.000000
  0.333333  0.444444  0.000000      2.000000
  0.444444  0.444444  0.000000      2.000000
 -0.444444  0.444444  0.000000      2.000000
 -0.333333  0.444444  0.000000      2.000000
 -0.222222  0.444444  0.000000      2.000000
 -0.111111  0.444444  0.000000      2.000000
 
 Following cartesian coordinates:
            Coordinates               Weight
  0.000000  0.000000  0.000000      1.000000
  0.011253  0.006497  0.000000      2.000000
  0.022505  0.012993  0.000000      2.000000
  0.033758  0.019490  0.000000      2.000000
  0.045011  0.025987  0.000000      2.000000
  0.000000  0.012993  0.000000      2.000000
  0.011253  0.019490  0.000000      2.000000
  0.022505  0.025987  0.000000      2.000000
  0.033758  0.032484  0.000000      2.000000
  0.045011  0.038980  0.000000      2.000000
 -0.045011 -0.012993  0.000000      2.000000
 -0.033758 -0.006497  0.000000      2.000000
 -0.022505 -0.000000  0.000000      2.000000
 -0.011253  0.006497  0.000000      2.000000
  0.000000  0.025987  0.000000      2.000000
  0.011253  0.032484  0.000000      2.000000
  0.022505  0.038980  0.000000      2.000000
  0.033758  0.045477  0.000000      2.000000
  0.045011  0.051974  0.000000      2.000000
 -0.045011  0.000000  0.000000      2.000000
 -0.033758  0.006497  0.000000      2.000000
 -0.022505  0.012993  0.000000      2.000000
 -0.011253  0.019490  0.000000      2.000000
  0.000000  0.038980  0.000000      2.000000
  0.011253  0.045477  0.000000      2.000000
  0.022505  0.051974  0.000000      2.000000
  0.033758  0.058470  0.000000      2.000000
  0.045011  0.064967  0.000000      2.000000
 -0.045011  0.012993  0.000000      2.000000
 -0.033758  0.019490  0.000000      2.000000
 -0.022505  0.025987  0.000000      2.000000
 -0.011253  0.032484  0.000000      2.000000
  0.000000  0.051974  0.000000      2.000000
  0.011253  0.058470  0.000000      2.000000
  0.022505  0.064967  0.000000      2.000000
  0.033758  0.071464  0.000000      2.000000
  0.045011  0.077961  0.000000      2.000000
 -0.045011  0.025987  0.000000      2.000000
 -0.033758  0.032484  0.000000      2.000000
 -0.022505  0.038980  0.000000      2.000000
 -0.011253  0.045477  0.000000      2.000000
 


--------------------------------------------------------------------------------------------------------




 Dimension of arrays:
   k-points           NKPTS =     41   k-points in BZ     NKDIM =     41   number of bands    NBANDS=     96
   number of dos      NEDOS =    301   number of ions     NIONS =     32
   non local maximal  LDIM  =      4   non local SUM 2l+1 LMDIM =      8
   total plane-waves  NPLWV = ******
   max r-space proj   IRMAX =   5676   max aug-charges    IRDMAX=   2654
   dimension x,y,z NGX =   112 NGY =  112 NGZ =  224
   dimension x,y,z NGXF=   112 NGYF=  112 NGZF=  224
   support grid    NGXF=   112 NGYF=  112 NGZF=  224
   ions per type =              32
   NGX,Y,Z   is equivalent  to a cutoff of  18.86, 18.86, 18.62 a.u.
   NGXF,Y,Z  is equivalent  to a cutoff of  18.86, 18.86, 18.62 a.u.

 Based on PREC, I would recommend the following setting:
   dimension x,y,z NGX =    72 NGY =   72 NGZ =  150

 SYSTEM =  graphene_metal                          
 POSCAR =  graphene+Na                             

 Startparameter for this run:
   NWRITE =      2    write-flag & timer
   PREC   = high      normal or accurate (medium, high low for compatibility)
   ISTART =      1    job   : 0-new  1-cont  2-samecut
   ICHARG =      1    charge: 1-file 2-atom 10-const
   ISPIN  =      1    spin polarized calculation?
   LNONCOLLINEAR =      F non collinear calculations
   LSORBIT =      F    spin-orbit coupling
   INIWAV =      1    electr: 0-lowe 1-rand  2-diag
   LASPH  =      F    aspherical Exc in radial PAW
   METAGGA=      F    non-selfconsistent MetaGGA calc.

 Electronic Relaxation 1
   ENCUT  =  500.0 eV  36.75 Ry    6.06 a.u.  18.00 18.00 36.46*2*pi/ulx,y,z
   ENINI  =  500.0     initial cutoff
   ENAUG  =  644.9 eV  augmentation charge cutoff
   NELM   =    200;   NELMIN=  2; NELMDL=  0     # of ELM steps 
   EDIFF  = 0.1E-04   stopping-criterion for ELM
   LREAL  =      T    real-space projection
   NLSPLINE    = F    spline interpolate recip. space projectors
   LCOMPAT=      F    compatible to vasp.4.4
   GGA_COMPAT  = T    GGA compatible to vasp.4.4-vasp.4.6
   LMAXPAW     = -100 max onsite density
   LMAXMIX     =    2 max onsite mixed and CHGCAR
   VOSKOWN=      0    Vosko Wilk Nusair interpolation
   ROPT   =   -0.00040
 Ionic relaxation
   EDIFFG = 0.1E-03   stopping-criterion for IOM
   NSW    =      0    number of steps for IOM
   NBLOCK =      1;   KBLOCK =      1    inner block; outer block 
   IBRION =     -1    ionic relax: 0-MD 1-quasi-New 2-CG
   NFREE  =      0    steps in history (QN), initial steepest desc. (CG)
   ISIF   =      2    stress and relaxation
   IWAVPR =     10    prediction:  0-non 1-charg 2-wave 3-comb
   ISYM   =      2    0-nonsym 1-usesym 2-fastsym
   LCORR  =      T    Harris-Foulkes like correction to forces

   POTIM  = 0.5000    time-step for ionic-motion
   TEIN   =    0.0    initial temperature
   TEBEG  =    0.0;   TEEND  =   0.0 temperature during run
   SMASS  =  -3.00    Nose mass-parameter (am)
   estimated Nose-frequenzy (Omega)   =  0.10E-29 period in steps =****** mass=  -0.223E-26a.u.
   SCALEE = 1.0000    scale energy and forces
   NPACO  =    256;   APACO  = 16.0  distance and # of slots for P.C.
   PSTRESS=    0.0 pullay stress

  Mass of Ions in am
   POMASS =  12.01
  Ionic Valenz
   ZVAL   =   4.00
  Atomic Wigner-Seitz radii
   RWIGS  =  -1.00
  virtual crystal weights 
   VCA    =   1.00
   NELECT =     128.0000    total number of electrons
   NUPDOWN=      -1.0000    fix difference up-down

 DOS related values:
   EMIN   =  10.00;   EMAX   =-10.00  energy-range for DOS
   EFERMI =   0.00
   ISMEAR =     0;   SIGMA  =   0.05  broadening in eV -4-tet -1-fermi 0-gaus

 Electronic relaxation 2 (details)
   IALGO  =     68    algorithm
   LDIAG  =      T    sub-space diagonalisation (order eigenvalues)
   LSUBROT=      F    optimize rotation matrix (better conditioning)
   TURBO    =      0    0=normal 1=particle mesh
   IRESTART =      0    0=no restart 2=restart with 2 vectors
   NREBOOT  =      0    no. of reboots
   NMIN     =      0    reboot dimension
   EREF     =   0.00    reference energy to select bands
   IMIX   =      4    mixing-type and parameters
     AMIX     =   0.40;   BMIX     =  1.00
     AMIX_MAG =   1.60;   BMIX_MAG =  1.00
     AMIN     =   0.10
     WC   =   100.;   INIMIX=   1;  MIXPRE=   1;  MAXMIX= -45

 Intra band minimization:
   WEIMIN = 0.0000     energy-eigenvalue tresh-hold
   EBREAK =  0.26E-07  absolut break condition
   DEPER  =   0.30     relativ break condition  

   TIME   =   0.40     timestep for ELM

  volume/ion in A,a.u.               =      52.77       356.13
  Fermi-wavevector in a.u.,A,eV,Ry     =   0.692823  1.309246  6.530847  0.480004
  Thomas-Fermi vector in A             =   1.774864
 
 Write flags
   LWAVE        =      T    write WAVECAR
   LDOWNSAMPLE  =      F    k-point downsampling of WAVECAR
   LCHARG       =      T    write CHGCAR
   LVTOT        =      F    write LOCPOT, total local potential
   LVHAR        =      F    write LOCPOT, Hartree potential only
   LELF         =      F    write electronic localiz. function (ELF)
   LORBIT       =      0    0 simple, 1 ext, 2 COOP (PROOUT), +10 PAW based schemes


 Dipole corrections
   LMONO  =      F    monopole corrections only (constant potential shift)
   LDIPOL =      T    correct potential (dipole corrections)
   IDIPOL =      3    1-x, 2-y, 3-z, 4-all directions 
   EPSILON=  1.0000000 bulk dielectric constant

 Exchange correlation treatment:
   GGA     =    --    GGA type
   LEXCH   =     8    internal setting for exchange type
   VOSKOWN=      0    Vosko Wilk Nusair interpolation
   LHFCALC =     F    Hartree Fock is set to
   LHFONE  =     F    Hartree Fock one center treatment
   AEXX    =    0.0000 exact exchange contribution

 Linear response parameters
   LEPSILON=     F    determine dielectric tensor
   LRPA    =     F    only Hartree local field effects (RPA)
   LNABLA  =     F    use nabla operator in PAW spheres
   LVEL    =     F    velocity operator in full k-point grid
   LINTERFAST=   F  fast interpolation
   KINTER  =     0    interpolate to denser k-point grid
   CSHIFT  =0.1000    complex shift for real part using Kramers Kronig
   OMEGAMAX=  -1.0    maximum frequency
   DEG_THRESHOLD= 0.2000000E-02 threshold for treating states as degnerate
   RTIME   =   -0.100 relaxation time in fs
  (WPLASMAI=    0.000 imaginary part of plasma frequency in eV, 0.658/RTIME)
   DFIELD  = 0.0000000 0.0000000 0.0000000 field for delta impulse in time
 
 Orbital magnetization related:
   ORBITALMAG=     F  switch on orbital magnetization
   LCHIMAG   =     F  perturbation theory with respect to B field
   DQ        =  0.001000  dq finite difference perturbation B field
   LLRAUG    =     F  two centre corrections for induced B field



--------------------------------------------------------------------------------------------------------


 Static calculation
 charge density and potential will be updated during run
 non-spin polarized calculation
 RMM-DIIS sequential band-by-band and
  variant of blocked Davidson during initial phase
 perform sub-space diagonalisation
    before iterative eigenvector-optimisation
 modified Broyden-mixing scheme, WC =      100.0
 initial mixing is a Kerker type mixing with AMIX =  0.4000 and BMIX =      1.0000
 Hartree-type preconditioning will be used
 using additional bands           32
 real space projection scheme for non local part
 calculate Harris-corrections to forces 
   (improved forces if not selfconsistent)
 use gradient corrections 
 use of overlap-Matrix (Vanderbilt PP)
 Gauss-broadening in eV      SIGMA  =   0.05


--------------------------------------------------------------------------------------------------------


  energy-cutoff  :      500.00
  volume of cell :     1688.76
      direct lattice vectors                 reciprocal lattice vectors
     9.874235153  0.000000000  0.000000000     0.101273667  0.058470379  0.000000000
    -4.937117577  8.551338486  0.000000000     0.000000000  0.116940757  0.000000000
     0.000000000  0.000000000 20.000000000     0.000000000  0.000000000  0.050000000

  length of vectors
     9.874235153  9.874235153 20.000000000     0.116940757  0.116940757  0.050000000


 
 old parameters found on file WAVECAR:
  energy-cutoff  :      500.00
  volume of cell :     1688.76
      direct lattice vectors                 reciprocal lattice vectors
     9.874235153  0.000000000  0.000000000     0.101273667  0.058470379  0.000000000
    -4.937117577  8.551338486  0.000000000     0.000000000  0.116940757  0.000000000
     0.000000000  0.000000000 20.000000000     0.000000000  0.000000000  0.050000000

  length of vectors

 
 k-points in units of 2pi/SCALE and weight: Automatic mesh                          
   0.00000000  0.00000000  0.00000000       0.012
   0.01125263  0.00649671  0.00000000       0.025
   0.02250526  0.01299342  0.00000000       0.025
   0.03375789  0.01949013  0.00000000       0.025
   0.04501052  0.02598683  0.00000000       0.025
   0.00000000  0.01299342  0.00000000       0.025
   0.01125263  0.01949013  0.00000000       0.025
   0.02250526  0.02598683  0.00000000       0.025
   0.03375789  0.03248354  0.00000000       0.025
   0.04501052  0.03898025  0.00000000       0.025
  -0.04501052 -0.01299342  0.00000000       0.025
  -0.03375789 -0.00649671  0.00000000       0.025
  -0.02250526 -0.00000000  0.00000000       0.025
  -0.01125263  0.00649671  0.00000000       0.025
   0.00000000  0.02598683  0.00000000       0.025
   0.01125263  0.03248354  0.00000000       0.025
   0.02250526  0.03898025  0.00000000       0.025
   0.03375789  0.04547696  0.00000000       0.025
   0.04501052  0.05197367  0.00000000       0.025
  -0.04501052  0.00000000  0.00000000       0.025
  -0.03375789  0.00649671  0.00000000       0.025
  -0.02250526  0.01299342  0.00000000       0.025
  -0.01125263  0.01949013  0.00000000       0.025
   0.00000000  0.03898025  0.00000000       0.025
   0.01125263  0.04547696  0.00000000       0.025
   0.02250526  0.05197367  0.00000000       0.025
   0.03375789  0.05847038  0.00000000       0.025
   0.04501052  0.06496709  0.00000000       0.025
  -0.04501052  0.01299342  0.00000000       0.025
  -0.03375789  0.01949013  0.00000000       0.025
  -0.02250526  0.02598683  0.00000000       0.025
  -0.01125263  0.03248354  0.00000000       0.025
   0.00000000  0.05197367  0.00000000       0.025
   0.01125263  0.05847038  0.00000000       0.025
   0.02250526  0.06496709  0.00000000       0.025
   0.03375789  0.07146380  0.00000000       0.025
   0.04501052  0.07796050  0.00000000       0.025
  -0.04501052  0.02598683  0.00000000       0.025
  -0.03375789  0.03248354  0.00000000       0.025
  -0.02250526  0.03898025  0.00000000       0.025
  -0.01125263  0.04547696  0.00000000       0.025
 
 k-points in reciprocal lattice and weights: Automatic mesh                          
   0.00000000  0.00000000  0.00000000       0.012
   0.11111111  0.00000000  0.00000000       0.025
   0.22222222  0.00000000  0.00000000       0.025
   0.33333333  0.00000000  0.00000000       0.025
   0.44444444  0.00000000  0.00000000       0.025
   0.00000000  0.11111111  0.00000000       0.025
   0.11111111  0.11111111  0.00000000       0.025
   0.22222222  0.11111111  0.00000000       0.025
   0.33333333  0.11111111  0.00000000       0.025
   0.44444444  0.11111111  0.00000000       0.025
  -0.44444444  0.11111111  0.00000000       0.025
  -0.33333333  0.11111111  0.00000000       0.025
  -0.22222222  0.11111111  0.00000000       0.025
  -0.11111111  0.11111111  0.00000000       0.025
   0.00000000  0.22222222  0.00000000       0.025
   0.11111111  0.22222222  0.00000000       0.025
   0.22222222  0.22222222  0.00000000       0.025
   0.33333333  0.22222222  0.00000000       0.025
   0.44444444  0.22222222  0.00000000       0.025
  -0.44444444  0.22222222  0.00000000       0.025
  -0.33333333  0.22222222  0.00000000       0.025
  -0.22222222  0.22222222  0.00000000       0.025
  -0.11111111  0.22222222  0.00000000       0.025
   0.00000000  0.33333333  0.00000000       0.025
   0.11111111  0.33333333  0.00000000       0.025
   0.22222222  0.33333333  0.00000000       0.025
   0.33333333  0.33333333  0.00000000       0.025
   0.44444444  0.33333333  0.00000000       0.025
  -0.44444444  0.33333333  0.00000000       0.025
  -0.33333333  0.33333333  0.00000000       0.025
  -0.22222222  0.33333333  0.00000000       0.025
  -0.11111111  0.33333333  0.00000000       0.025
   0.00000000  0.44444444  0.00000000       0.025
   0.11111111  0.44444444  0.00000000       0.025
   0.22222222  0.44444444  0.00000000       0.025
   0.33333333  0.44444444  0.00000000       0.025
   0.44444444  0.44444444  0.00000000       0.025
  -0.44444444  0.44444444  0.00000000       0.025
  -0.33333333  0.44444444  0.00000000       0.025
  -0.22222222  0.44444444  0.00000000       0.025
  -0.11111111  0.44444444  0.00000000       0.025
 
 position of ions in fractional coordinates (direct lattice) 
   0.16647518  0.08315087  0.50000000
   0.41667537  0.08315076  0.49997437
   0.66671650  0.08335870  0.50000000
   0.91664183  0.08335826  0.50008616
   0.16610479  0.33305197  0.49978934
   0.41637835  0.33275755  0.49915571
   0.66694816  0.33305189  0.50000000
   0.91664144  0.33328375  0.50010917
   0.16647517  0.58332486  0.49999609
   0.41637829  0.58362172  0.49918330
   0.66724248  0.58362164  0.49915816
   0.91684911  0.58332457  0.49997861
   0.16666649  0.83333333  0.50000057
   0.41667496  0.83352477  0.49998966
   0.66694814  0.83389548  0.49978569
   0.91684906  0.83352477  0.50000000
   0.08315010  0.16647490  0.50000000
   0.33305307  0.16610452  0.49977525
   0.58332426  0.16647545  0.50003825
   0.83333319  0.16666663  0.50003104
   0.08315065  0.41667550  0.50002052
   0.33275681  0.41637753  0.49916998
   0.58362013  0.41638001  0.49921548
   0.83352450  0.41667579  0.50006388
   0.08335882  0.66671700  0.50000000
   0.33305140  0.66694854  0.49979251
   0.58362234  0.66724286  0.49917347
   0.83389569  0.66694694  0.49977368
   0.08335836  0.91664160  0.50007978
   0.33328300  0.91664114  0.50000000
   0.58332475  0.91684964  0.49999068
   0.83352513  0.91684991  0.50000000
 
 position of ions in cartesian coordinates  (Angst):
   1.23328951  0.71105121 10.00000000
   3.70382555  0.71105027  9.99948738
   6.17176375  0.71282850 10.00000000
   8.63958742  0.71282467 10.00172318
  -0.00415897  2.84804013  9.99578683
   2.46855454  2.84552248  9.98311429
   4.94128660  2.84803941 10.00000000
   7.40567214  2.85002212 10.00218346
  -1.23612840  4.98820832  9.99992172
   1.23000808  4.99074687  9.98366595
   3.70710049  4.99074623  9.98316313
   6.17324176  4.98820582  9.99957230
  -2.46856053  7.12611539 10.00001147
  -0.00086325  7.12775246  9.99979321
   2.46856271  7.13092251  9.99571371
   4.93797349  7.12775241 10.00000000
  -0.00086248  1.42358319 10.00000000
   2.46856680  1.42041601  9.99550506
   4.93797205  1.42358793 10.00076492
   7.40567514  1.42522273 10.00062070
  -1.23612688  3.56313323 10.00041033
   1.23001415  3.56058518  9.98339961
   3.70708538  3.56060636  9.98430964
   6.17323956  3.56313574 10.00127762
  -2.46855564  5.70132272 10.00000000
  -0.00417549  5.70330273  9.99585014
   2.46856781  5.70581955  9.98346948
   4.94128669  5.70328905  9.99547356
  -3.70246725  7.83851256 10.00159564
  -1.23465039  7.83850862 10.00000000
   1.23329130  7.84029160  9.99981369
   3.70382735  7.84029390 10.00000000
 


--------------------------------------------------------------------------------------------------------


 k-point  1 :   0.0000 0.0000 0.0000  plane waves:   42745
 k-point  2 :   0.1111 0.0000 0.0000  plane waves:   42799
 k-point  3 :   0.2222 0.0000 0.0000  plane waves:   42837
 k-point  4 :   0.3333 0.0000 0.0000  plane waves:   42905
 k-point  5 :   0.4444 0.0000 0.0000  plane waves:   42894
 k-point  6 :   0.0000 0.1111 0.0000  plane waves:   42799
 k-point  7 :   0.1111 0.1111 0.0000  plane waves:   42888
 k-point  8 :   0.2222 0.1111 0.0000  plane waves:   42878
 k-point  9 :   0.3333 0.1111 0.0000  plane waves:   42876
 k-point 10 :   0.4444 0.1111 0.0000  plane waves:   42906
 k-point 11 :  -0.4444 0.1111 0.0000  plane waves:   42876
 k-point 12 :  -0.3333 0.1111 0.0000  plane waves:   42878
 k-point 13 :  -0.2222 0.1111 0.0000  plane waves:   42888
 k-point 14 :  -0.1111 0.1111 0.0000  plane waves:   42799
 k-point 15 :   0.0000 0.2222 0.0000  plane waves:   42837
 k-point 16 :   0.1111 0.2222 0.0000  plane waves:   42878
 k-point 17 :   0.2222 0.2222 0.0000  plane waves:   42886
 k-point 18 :   0.3333 0.2222 0.0000  plane waves:   42887
 k-point 19 :   0.4444 0.2222 0.0000  plane waves:   42887
 k-point 20 :  -0.4444 0.2222 0.0000  plane waves:   42886
 k-point 21 :  -0.3333 0.2222 0.0000  plane waves:   42878
 k-point 22 :  -0.2222 0.2222 0.0000  plane waves:   42837
 k-point 23 :  -0.1111 0.2222 0.0000  plane waves:   42888
 k-point 24 :   0.0000 0.3333 0.0000  plane waves:   42905
 k-point 25 :   0.1111 0.3333 0.0000  plane waves:   42876
 k-point 26 :   0.2222 0.3333 0.0000  plane waves:   42887
 k-point 27 :   0.3333 0.3333 0.0000  plane waves:   42816
 k-point 28 :   0.4444 0.3333 0.0000  plane waves:   42887
 k-point 29 :  -0.4444 0.3333 0.0000  plane waves:   42876
 k-point 30 :  -0.3333 0.3333 0.0000  plane waves:   42905
 k-point 31 :  -0.2222 0.3333 0.0000  plane waves:   42878
 k-point 32 :  -0.1111 0.3333 0.0000  plane waves:   42878
 k-point 33 :   0.0000 0.4444 0.0000  plane waves:   42894
 k-point 34 :   0.1111 0.4444 0.0000  plane waves:   42906
 k-point 35 :   0.2222 0.4444 0.0000  plane waves:   42887
 k-point 36 :   0.3333 0.4444 0.0000  plane waves:   42887
 k-point 37 :   0.4444 0.4444 0.0000  plane waves:   42906
 k-point 38 :  -0.4444 0.4444 0.0000  plane waves:   42894
 k-point 39 :  -0.3333 0.4444 0.0000  plane waves:   42876
 k-point 40 :  -0.2222 0.4444 0.0000  plane waves:   42886
 k-point 41 :  -0.1111 0.4444 0.0000  plane waves:   42876

 maximum and minimum number of plane-waves per node :     42906    42745

 maximum number of plane-waves:     42906
 maximum index in each direction: 
   IXMAX=   18   IYMAX=   18   IZMAX=   36
   IXMIN=  -18   IYMIN=  -18   IZMIN=  -36


 serial   3D FFT for wavefunctions
 parallel 3D FFT for charge:
    minimum data exchange during FFTs selected (reduces bandwidth)


 total amount of memory used by VASP MPI-rank0   294289. kBytes
=======================================================================

   base      :      30000. kBytes
   nonlr-proj:      15440. kBytes
   fftplans  :      16807. kBytes
   grid      :     118651. kBytes
   one-center:         98. kBytes
   wavefun   :     113293. kBytes
 
     INWAV:  cpu time   13.1140: real time   13.1928
 Broyden mixing: mesh for mixing (old mesh)
   NGX = 37   NGY = 37   NGZ = 73
  (NGX  =112   NGY  =112   NGZ  =224)
  gives a total of  99937 points

 initial charge density was supplied:
 number of electron     127.9999886 magnetization 
 keeping initial charge density in first step


--------------------------------------------------------------------------------------------------------


 Maximum index for non-local projection operator         5491
 Maximum index for augmentation-charges          187 (set IRDMAX)


--------------------------------------------------------------------------------------------------------


 First call to EWALD:  gamma=   0.149
 Maximum number of real-space cells 4x 4x 2
 Maximum number of reciprocal cells 2x 2x 4

    FEWALD:  cpu time    0.0020: real time    0.0023


--------------------------------------- Iteration      1(   1)  ---------------------------------------


    POTLOK:  cpu time    0.2670: real time    0.3027
    SETDIJ:  cpu time    0.0030: real time    0.0037
     EDDAV:  cpu time  210.7400: real time  211.1390
       DOS:  cpu time    0.0020: real time    0.0019
    CHARGE:  cpu time   18.5142: real time   18.5513
    MIXING:  cpu time    0.0080: real time    0.0080
    --------------------------------------------
      LOOP:  cpu time  229.5341: real time  230.0066

 eigenvalue-minimisations  :  7752
 total energy-change (2. order) :-0.2950772E+03  (-0.6012400E-07)
 number of electron     127.9999886 magnetization 
 augmentation part        3.0675325 magnetization 

 DIPCOR: dipole corrections for dipol
 direction  3 min pos   219,
 dipolmoment           0.000000      0.000000     -0.000136 electrons x Angstroem
 Tr[quadrupol]     -1977.164402

 energy correction for charged system         0.000000 eV
 dipol+quadrupol energy correction           -0.000000 eV
 added-field ion interaction          0.000990 eV  (added to PSCEN)


 Broyden mixing:
  rms(total) = 0.13610E-03    rms(broyden)= 0.13605E-03
  rms(prec ) = 0.16048E-03
  weight for this iteration     100.00

 Free energy of the ion-electron system (eV)
  ---------------------------------------------------
  alpha Z        PSCENC =        49.40751305
  Ewald energy   TEWEN  =     20664.35300017
  -Hartree energ DENC   =    -24615.48420026
  -exchange      EXHF   =         0.00000000
  -V(xc)+E(xc)   XCENC  =       459.98287649
  PAW double counting   =      2216.70077835    -2258.07452300
  entropy T*S    EENTRO =        -0.00139306
  eigenvalues    EBANDS =     -1520.71070837
  atomic energy  EATOM  =      4708.74949353
  Solvation  Ediel_sol  =         0.00000000
  ---------------------------------------------------
  free energy    TOTEN  =      -295.07716310 eV

  energy without entropy =     -295.07577004  energy(sigma->0) =     -295.07646657


--------------------------------------------------------------------------------------------------------




--------------------------------------- Iteration      1(   2)  ---------------------------------------


    POTLOK:  cpu time    0.2540: real time    0.2538
    SETDIJ:  cpu time    0.0030: real time    0.0036
    EDDIAG:  cpu time   49.7124: real time   49.8120
  RMM-DIIS:  cpu time  128.5904: real time  128.7628
    ORTHCH:  cpu time    1.8007: real time    1.8009
       DOS:  cpu time    0.0020: real time    0.0017
    --------------------------------------------
      LOOP:  cpu time  180.3626: real time  180.6348

 eigenvalue-minimisations  :  2586
 total energy-change (2. order) : 0.1081607E-06  ( 0.0000000E+00)
 number of electron     127.9999886 magnetization 
 augmentation part        3.0675325 magnetization 

 DIPCOR: dipole corrections for dipol
 direction  3 min pos   219,
 dipolmoment           0.000000      0.000000     -0.000107 electrons x Angstroem
 Tr[quadrupol]     -1977.164357

 energy correction for charged system         0.000000 eV
 dipol+quadrupol energy correction           -0.000000 eV
 added-field ion interaction          0.000779 eV  (added to PSCEN)


 Free energy of the ion-electron system (eV)
  ---------------------------------------------------
  alpha Z        PSCENC =        49.40730250
  Ewald energy   TEWEN  =     20664.35300017
  -Hartree energ DENC   =    -24615.48279533
  -exchange      EXHF   =         0.00000000
  -V(xc)+E(xc)   XCENC  =       459.98282163
  PAW double counting   =      2216.69948828    -2258.07321387
  entropy T*S    EENTRO =        -0.00139306
  eigenvalues    EBANDS =     -1520.71186683
  atomic energy  EATOM  =      4708.74949353
  Solvation  Ediel_sol  =         0.00000000
  ---------------------------------------------------
  free energy    TOTEN  =      -295.07716299 eV

  energy without entropy =     -295.07576993  energy(sigma->0) =     -295.07646646


--------------------------------------------------------------------------------------------------------




 average (electrostatic) potential at core
  the test charge radii are     0.6991
  (the norm of the test charge is              1.0000)
       1 -58.1889       2 -58.1888       3 -58.1873       4 -58.1873       5 -58.1882
       6 -58.1927       7 -58.1881       8 -58.1873       9 -58.1889      10 -58.1927
      11 -58.1926      12 -58.1889      13 -58.1895      14 -58.1889      15 -58.1882
      16 -58.1889      17 -58.1889      18 -58.1882      19 -58.1889      20 -58.1895
      21 -58.1889      22 -58.1927      23 -58.1926      24 -58.1889      25 -58.1874
      26 -58.1882      27 -58.1927      28 -58.1881      29 -58.1874      30 -58.1873
      31 -58.1889      32 -58.1889
 
 
 
 E-fermi :  -2.7567     XC(G=0):  -2.1503     alpha+bet : -1.9023


 k-point     1 :       0.0000    0.0000    0.0000
  band No.  band energies     occupation 
      1     -22.2459      2.00000
      2     -20.7978      2.00000
      3     -20.7957      2.00000
      4     -20.7956      2.00000
      5     -20.7792      2.00000
      6     -20.7792      2.00000
      7     -20.7462      2.00000
      8     -17.9785      2.00000
      9     -17.9784      2.00000
     10     -17.9728      2.00000
     11     -17.9652      2.00000
     12     -17.9652      2.00000
     13     -17.9541      2.00000
     14     -17.0248      2.00000
     15     -17.0132      2.00000
     16     -17.0131      2.00000
     17     -15.9659      2.00000
     18     -15.9658      2.00000
     19     -15.9590      2.00000
     20     -13.2955      2.00000
     21     -13.2875      2.00000
     22     -13.2647      2.00000
     23     -13.2646      2.00000
     24     -13.2594      2.00000
     25     -13.2593      2.00000
     26     -11.7000      2.00000
     27     -11.7000      2.00000
     28     -11.6933      2.00000
     29     -11.6933      2.00000
     30     -11.6630      2.00000
     31     -11.6595      2.00000
     32     -10.3515      2.00000
     33     -10.1748      2.00000
     34     -10.1747      2.00000
     35     -10.1727      2.00000
     36     -10.1725      2.00000
     37     -10.1648      2.00000
     38     -10.1647      2.00000
     39      -9.1574      2.00000
     40      -9.1573      2.00000
     41      -9.1489      2.00000
     42      -8.6401      2.00000
     43      -8.6392      2.00000
     44      -8.6391      2.00000
     45      -8.6263      2.00000
     46      -8.6263      2.00000
     47      -8.6000      2.00000
     48      -7.7953      2.00000
     49      -7.7930      2.00000
     50      -7.7919      2.00000
     51      -7.7919      2.00000
     52      -7.7852      2.00000
     53      -7.7851      2.00000
     54      -5.7867      2.00000
     55      -5.7866      2.00000
     56      -5.4931      2.00000
     57      -5.4930      2.00000
     58      -5.4882      2.00000
     59      -5.4822      2.00000
     60      -5.4821      2.00000
     61      -5.4774      2.00000
     62      -5.1154      2.00000
     63      -5.1070      2.00000
     64      -5.1070      2.00000
     65      -1.0820      0.00000
     66      -1.0820      0.00000
     67      -1.0744      0.00000
     68       0.0423      0.00000
     69       0.0450      0.00000
     70       0.0490      0.00000
     71       0.0491      0.00000
     72       0.0568      0.00000
     73       0.0569      0.00000
     74       0.5228      0.00000
     75       1.3217      0.00000
     76       1.6891      0.00000
     77       2.5180      0.00000
     78       2.5185      0.00000
     79       2.5196      0.00000
     80       2.5216      0.00000
     81       2.5232      0.00000
     82       2.5227      0.00000
     83       2.5858      0.00000
     84       3.0498      0.00000
     85       3.3290      0.00000
     86       3.3296      0.00000
     87       3.3339      0.00000
     88       3.3450      0.00000
     89       3.3606      0.00000
     90       3.4042      0.00000
     91       3.7355      0.00000
     92       3.7317      0.00000
     93       3.7298      0.00000
     94       3.7312      0.00000
     95       3.7263      0.00000
     96       4.4118      0.00000

 k-point     2 :       0.1111    0.0000    0.0000
  band No.  band energies     occupation 
      1     -22.2277      2.00000
      2     -21.0887      2.00000
      3     -20.9309      2.00000
      4     -20.9197      2.00000
      5     -20.6085      2.00000
      6     -20.5994      2.00000
      7     -20.4413      2.00000
      8     -18.4114      2.00000
      9     -18.4010      2.00000
     10     -17.9539      2.00000
     11     -17.9513      2.00000
     12     -17.5133      2.00000
     13     -17.5026      2.00000
     14     -17.2838      2.00000
     15     -17.0875      2.00000
     16     -17.0806      2.00000
     17     -15.8682      2.00000
     18     -15.8645      2.00000
     19     -15.6696      2.00000
     20     -13.7122      2.00000
     21     -13.7057      2.00000
     22     -13.4163      2.00000
     23     -13.4152      2.00000
     24     -12.8932      2.00000
     25     -12.8907      2.00000
     26     -12.0195      2.00000
     27     -12.0178      2.00000
     28     -11.5381      2.00000
     29     -11.5345      2.00000
     30     -11.2541      2.00000
     31     -11.2489      2.00000
     32     -10.9048      2.00000
     33     -10.5375      2.00000
     34     -10.5357      2.00000
     35     -10.3294      2.00000
     36      -9.8111      2.00000
     37      -9.8089      2.00000
     38      -9.4470      2.00000
     39      -9.2143      2.00000
     40      -9.2090      2.00000
     41      -9.1363      2.00000
     42      -8.9835      2.00000
     43      -8.7988      2.00000
     44      -8.7898      2.00000
     45      -8.4263      2.00000
     46      -8.4185      2.00000
     47      -8.2377      2.00000
     48      -8.0576      2.00000
     49      -7.9863      2.00000
     50      -7.9817      2.00000
     51      -7.7073      2.00000
     52      -7.7043      2.00000
     53      -7.5060      2.00000
     54      -5.9579      2.00000
     55      -5.9504      2.00000
     56      -5.8624      2.00000
     57      -5.8264      2.00000
     58      -5.4781      2.00000
     59      -5.4744      2.00000
     60      -5.2266      2.00000
     61      -5.1262      2.00000
     62      -5.1207      2.00000
     63      -5.0101      2.00000
     64      -5.0024      2.00000
     65      -1.0489      0.00000
     66      -1.0441      0.00000
     67      -0.9348      0.00000
     68      -0.4903      0.00000
     69      -0.4875      0.00000
     70       0.0114      0.00000
     71       0.0157      0.00000
     72       0.5475      0.00000
     73       0.5902      0.00000
     74       0.5947      0.00000
     75       1.3467      0.00000
     76       1.7144      0.00000
     77       2.1021      0.00000
     78       2.3234      0.00000
     79       2.3243      0.00000
     80       2.6252      0.00000
     81       2.7660      0.00000
     82       2.7670      0.00000
     83       2.9852      0.00000
     84       2.9640      0.00000
     85       3.0605      0.00000
     86       3.2913      0.00000
     87       3.1542      0.00000
     88       3.5200      0.00000
     89       3.5450      0.00000
     90       3.5722      0.00000
     91       3.5738      0.00000
     92       3.6338      0.00000
     93       3.4383      0.00000
     94       3.9344      0.00000
     95       3.9848      0.00000
     96       4.1236      0.00000

 k-point     3 :       0.2222    0.0000    0.0000
  band No.  band energies     occupation 
      1     -22.1731      2.00000
      2     -21.3579      2.00000
      3     -21.0385      2.00000
      4     -21.0278      2.00000
      5     -20.3949      2.00000
      6     -20.3852      2.00000
      7     -20.0695      2.00000
      8     -18.8208      2.00000
      9     -18.8104      2.00000
     10     -17.9047      2.00000
     11     -17.9020      2.00000
     12     -17.7665      2.00000
     13     -17.2388      2.00000
     14     -17.2332      2.00000
     15     -17.0347      2.00000
     16     -17.0236      2.00000
     17     -15.6261      2.00000
     18     -15.6238      2.00000
     19     -15.1061      2.00000
     20     -14.1967      2.00000
     21     -14.1891      2.00000
     22     -13.7466      2.00000
     23     -13.7458      2.00000
     24     -12.5550      2.00000
     25     -12.5539      2.00000
     26     -12.2495      2.00000
     27     -12.2490      2.00000
     28     -11.6405      2.00000
     29     -11.1952      2.00000
     30     -11.1914      2.00000
     31     -10.8990      2.00000
     32     -10.8974      2.00000
     33     -10.7503      2.00000
     34     -10.7439      2.00000
     35     -10.2643      2.00000
     36      -9.4715      2.00000
     37      -9.4689      2.00000
     38      -9.3801      2.00000
     39      -9.3750      2.00000
     40      -9.2990      2.00000
     41      -9.0824      2.00000
     42      -8.9237      2.00000
     43      -8.9149      2.00000
     44      -8.7439      2.00000
     45      -8.3026      2.00000
     46      -8.2870      2.00000
     47      -8.2817      2.00000
     48      -8.1803      2.00000
     49      -8.1724      2.00000
     50      -7.8157      2.00000
     51      -7.7190      2.00000
     52      -7.7167      2.00000
     53      -7.2110      2.00000
     54      -6.4053      2.00000
     55      -6.3977      2.00000
     56      -6.0842      2.00000
     57      -5.9424      2.00000
     58      -5.5328      2.00000
     59      -5.4496      2.00000
     60      -5.4459      2.00000
     61      -5.1634      2.00000
     62      -5.1579      2.00000
     63      -4.5377      2.00000
     64      -4.5301      2.00000
     65      -1.0077      0.00000
     66      -1.0054      0.00000
     67      -0.9536      0.00000
     68      -0.9488      0.00000
     69      -0.5439      0.00000
     70      -0.0920      0.00000
     71      -0.0877      0.00000
     72       0.6216      0.00000
     73       1.1274      0.00000
     74       1.1328      0.00000
     75       1.4218      0.00000
     76       1.7324      0.00000
     77       1.7904      0.00000
     78       2.1761      0.00000
     79       2.1769      0.00000
     80       2.5438      0.00000
     81       2.7009      0.00000
     82       2.8979      0.00000
     83       2.9255      0.00000
     84       2.9856      0.00000
     85       3.0610      0.00000
     86       3.0473      0.00000
     87       3.0217      0.00000
     88       3.1345      0.00000
     89       3.3806      0.00000
     90       3.3774      0.00000
     91       3.5503      0.00000
     92       3.5227      0.00000
     93       3.5541      0.00000
     94       3.8628      0.00000
     95       3.8888      0.00000
     96       3.9651      0.00000

 k-point     4 :       0.3333    0.0000    0.0000
  band No.  band energies     occupation 
      1     -22.0822      2.00000
      2     -21.5923      2.00000
      3     -21.1104      2.00000
      4     -21.0998      2.00000
      5     -20.1467      2.00000
      6     -20.1367      2.00000
      7     -19.6644      2.00000
      8     -19.2004      2.00000
      9     -19.1901      2.00000
     10     -18.2716      2.00000
     11     -17.8236      2.00000
     12     -17.8209      2.00000
     13     -17.4102      2.00000
     14     -17.4054      2.00000
     15     -16.5565      2.00000
     16     -16.5450      2.00000
     17     -15.3058      2.00000
     18     -15.3045      2.00000
     19     -14.6931      2.00000
     20     -14.6853      2.00000
     21     -14.4669      2.00000
     22     -14.1412      2.00000
     23     -14.1408      2.00000
     24     -12.3939      2.00000
     25     -12.3922      2.00000
     26     -12.3693      2.00000
     27     -12.2342      2.00000
     28     -12.2341      2.00000
     29     -11.2508      2.00000
     30     -11.2494      2.00000
     31     -10.7846      2.00000
     32     -10.7807      2.00000
     33     -10.2103      2.00000
     34     -10.2035      2.00000
     35     -10.1559      2.00000
     36      -9.6416      2.00000
     37      -9.6364      2.00000
     38      -9.5753      2.00000
     39      -9.1809      2.00000
     40      -9.1785      2.00000
     41      -9.0077      2.00000
     42      -8.9987      2.00000
     43      -8.9924      2.00000
     44      -8.6812      2.00000
     45      -8.6751      2.00000
     46      -8.5208      2.00000
     47      -8.0745      2.00000
     48      -7.8959      2.00000
     49      -7.8880      2.00000
     50      -7.7956      2.00000
     51      -7.7936      2.00000
     52      -7.3657      2.00000
     53      -6.9140      2.00000
     54      -6.8261      2.00000
     55      -6.8186      2.00000
     56      -6.4373      2.00000
     57      -6.1239      2.00000
     58      -5.9500      2.00000
     59      -5.4046      2.00000
     60      -5.4010      2.00000
     61      -5.2184      2.00000
     62      -5.2128      2.00000
     63      -4.1107      2.00000
     64      -4.1028      2.00000
     65      -1.4648      0.00000
     66      -1.4625      0.00000
     67      -0.8079      0.00000
     68      -0.8032      0.00000
     69      -0.2473      0.00000
     70      -0.2429      0.00000
     71       0.0124      0.00000
     72       0.7451      0.00000
     73       1.4117      0.00000
     74       1.5468      0.00000
     75       1.6547      0.00000
     76       1.6611      0.00000
     77       1.9169      0.00000
     78       2.0779      0.00000
     79       2.0788      0.00000
     80       2.1370      0.00000
     81       2.2205      0.00000
     82       2.6005      0.00000
     83       2.8223      0.00000
     84       2.8914      0.00000
     85       2.8910      0.00000
     86       3.1393      0.00000
     87       3.1484      0.00000
     88       3.2764      0.00000
     89       3.2852      0.00000
     90       3.2796      0.00000
     91       3.4185      0.00000
     92       3.4268      0.00000
     93       3.4975      0.00000
     94       3.9520      0.00000
     95       4.0867      0.00000
     96       4.2188      0.00000

 k-point     5 :       0.4444    0.0000    0.0000
  band No.  band energies     occupation 
      1     -21.9555      2.00000
      2     -21.7909      2.00000
      3     -21.1464      2.00000
      4     -21.1358      2.00000
      5     -19.8643      2.00000
      6     -19.8543      2.00000
      7     -19.5486      2.00000
      8     -19.5383      2.00000
      9     -19.2279      2.00000
     10     -18.7621      2.00000
     11     -17.7121      2.00000
     12     -17.7099      2.00000
     13     -17.5716      2.00000
     14     -17.5666      2.00000
     15     -16.1535      2.00000
     16     -16.1411      2.00000
     17     -15.1097      2.00000
     18     -15.1023      2.00000
     19     -14.9400      2.00000
     20     -14.9396      2.00000
     21     -14.5468      2.00000
     22     -14.5467      2.00000
     23     -13.7906      2.00000
     24     -13.0895      2.00000
     25     -12.4594      2.00000
     26     -12.4590      2.00000
     27     -11.9166      2.00000
     28     -11.9159      2.00000
     29     -11.5897      2.00000
     30     -11.5888      2.00000
     31     -10.3679      2.00000
     32     -10.3637      2.00000
     33     -10.0050      2.00000
     34      -9.9783      2.00000
     35      -9.9735      2.00000
     36      -9.8105      2.00000
     37      -9.6672      2.00000
     38      -9.6602      2.00000
     39      -9.1492      2.00000
     40      -9.1425      2.00000
     41      -9.0490      2.00000
     42      -9.0403      2.00000
     43      -8.9972      2.00000
     44      -8.9947      2.00000
     45      -8.8696      2.00000
     46      -8.7089      2.00000
     47      -7.8745      2.00000
     48      -7.8727      2.00000
     49      -7.5742      2.00000
     50      -7.5663      2.00000
     51      -7.4541      2.00000
     52      -7.2169      2.00000
     53      -7.2090      2.00000
     54      -6.9034      2.00000
     55      -6.8931      2.00000
     56      -6.6248      2.00000
     57      -6.4163      2.00000
     58      -6.3563      2.00000
     59      -5.3470      2.00000
     60      -5.3446      2.00000
     61      -5.2824      2.00000
     62      -5.2756      2.00000
     63      -3.8232      2.00000
     64      -3.8146      2.00000
     65      -1.7680      0.00000
     66      -1.7652      0.00000
     67      -0.6279      0.00000
     68      -0.6232      0.00000
     69      -0.4334      0.00000
     70      -0.4290      0.00000
     71       0.6695      0.00000
     72       0.9179      0.00000
     73       1.1402      0.00000
     74       1.3866      0.00000
     75       1.7217      0.00000
     76       1.9463      0.00000
     77       2.0287      0.00000
     78       2.0296      0.00000
     79       2.0942      0.00000
     80       2.1688      0.00000
     81       2.1762      0.00000
     82       2.3220      0.00000
     83       2.6660      0.00000
     84       2.6744      0.00000
     85       2.8427      0.00000
     86       2.8430      0.00000
     87       3.0023      0.00000
     88       3.2301      0.00000
     89       3.2249      0.00000
     90       3.2282      0.00000
     91       3.4526      0.00000
     92       3.6804      0.00000
     93       3.7993      0.00000
     94       3.8273      0.00000
     95       4.1452      0.00000
     96       4.1568      0.00000

 k-point     6 :       0.0000    0.1111    0.0000
  band No.  band energies     occupation 
      1     -22.2277      2.00000
      2     -21.0887      2.00000
      3     -20.9309      2.00000
      4     -20.9197      2.00000
      5     -20.6085      2.00000
      6     -20.5994      2.00000
      7     -20.4413      2.00000
      8     -18.4114      2.00000
      9     -18.4010      2.00000
     10     -17.9539      2.00000
     11     -17.9513      2.00000
     12     -17.5133      2.00000
     13     -17.5026      2.00000
     14     -17.2838      2.00000
     15     -17.0875      2.00000
     16     -17.0806      2.00000
     17     -15.8682      2.00000
     18     -15.8645      2.00000
     19     -15.6696      2.00000
     20     -13.7122      2.00000
     21     -13.7058      2.00000
     22     -13.4163      2.00000
     23     -13.4152      2.00000
     24     -12.8932      2.00000
     25     -12.8908      2.00000
     26     -12.0195      2.00000
     27     -12.0178      2.00000
     28     -11.5381      2.00000
     29     -11.5345      2.00000
     30     -11.2541      2.00000
     31     -11.2489      2.00000
     32     -10.9048      2.00000
     33     -10.5376      2.00000
     34     -10.5357      2.00000
     35     -10.3294      2.00000
     36      -9.8111      2.00000
     37      -9.8089      2.00000
     38      -9.4470      2.00000
     39      -9.2143      2.00000
     40      -9.2090      2.00000
     41      -9.1363      2.00000
     42      -8.9835      2.00000
     43      -8.7988      2.00000
     44      -8.7898      2.00000
     45      -8.4263      2.00000
     46      -8.4185      2.00000
     47      -8.2377      2.00000
     48      -8.0576      2.00000
     49      -7.9863      2.00000
     50      -7.9817      2.00000
     51      -7.7073      2.00000
     52      -7.7043      2.00000
     53      -7.5060      2.00000
     54      -5.9579      2.00000
     55      -5.9504      2.00000
     56      -5.8623      2.00000
     57      -5.8264      2.00000
     58      -5.4781      2.00000
     59      -5.4744      2.00000
     60      -5.2266      2.00000
     61      -5.1262      2.00000
     62      -5.1207      2.00000
     63      -5.0101      2.00000
     64      -5.0024      2.00000
     65      -1.0489      0.00000
     66      -1.0441      0.00000
     67      -0.9348      0.00000
     68      -0.4903      0.00000
     69      -0.4875      0.00000
     70       0.0114      0.00000
     71       0.0157      0.00000
     72       0.5475      0.00000
     73       0.5902      0.00000
     74       0.5947      0.00000
     75       1.3467      0.00000
     76       1.7144      0.00000
     77       2.1021      0.00000
     78       2.3234      0.00000
     79       2.3243      0.00000
     80       2.6249      0.00000
     81       2.7660      0.00000
     82       2.7669      0.00000
     83       2.9203      0.00000
     84       2.9807      0.00000
     85       3.0719      0.00000
     86       3.2262      0.00000
     87       3.2538      0.00000
     88       3.5284      0.00000
     89       3.5417      0.00000
     90       3.5739      0.00000
     91       3.5035      0.00000
     92       3.6190      0.00000
     93       3.5429      0.00000
     94       3.9413      0.00000
     95       3.9808      0.00000
     96       4.0869      0.00000

 k-point     7 :       0.1111    0.1111    0.0000
  band No.  band energies     occupation 
      1     -22.1913      2.00000
      2     -21.2244      2.00000
      3     -21.2024      2.00000
      4     -20.7318      2.00000
      5     -20.7256      2.00000
      6     -20.2590      2.00000
      7     -20.2356      2.00000
      8     -18.8329      2.00000
      9     -18.3751      2.00000
     10     -18.3692      2.00000
     11     -17.5090      2.00000
     12     -17.5023      2.00000
     13     -17.4791      2.00000
     14     -17.4736      2.00000
     15     -17.0429      2.00000
     16     -16.9700      2.00000
     17     -15.9175      2.00000
     18     -15.3943      2.00000
     19     -15.3890      2.00000
     20     -14.0463      2.00000
     21     -13.9807      2.00000
     22     -13.9579      2.00000
     23     -13.1515      2.00000
     24     -13.1349      2.00000
     25     -12.4186      2.00000
     26     -12.4099      2.00000
     27     -11.7488      2.00000
     28     -11.7310      2.00000
     29     -11.2707      2.00000
     30     -11.2687      2.00000
     31     -11.0148      2.00000
     32     -10.9867      2.00000
     33     -10.8787      2.00000
     34     -10.2862      2.00000
     35     -10.1804      2.00000
     36     -10.1737      2.00000
     37      -9.3959      2.00000
     38      -9.1784      2.00000
     39      -9.1730      2.00000
     40      -9.1385      2.00000
     41      -9.1211      2.00000
     42      -9.1014      2.00000
     43      -9.0972      2.00000
     44      -8.5682      2.00000
     45      -8.5633      2.00000
     46      -8.2429      2.00000
     47      -8.2409      2.00000
     48      -8.0243      2.00000
     49      -8.0133      2.00000
     50      -8.0114      2.00000
     51      -8.0034      2.00000
     52      -7.4155      2.00000
     53      -7.4104      2.00000
     54      -6.4172      2.00000
     55      -6.0094      2.00000
     56      -5.9288      2.00000
     57      -5.9267      2.00000
     58      -5.9057      2.00000
     59      -5.3472      2.00000
     60      -5.3421      2.00000
     61      -5.0452      2.00000
     62      -4.9988      2.00000
     63      -4.9967      2.00000
     64      -4.5286      2.00000
     65      -1.0961      0.00000
     66      -0.9895      0.00000
     67      -0.7716      0.00000
     68      -0.7665      0.00000
     69      -0.5495      0.00000
     70      -0.5403      0.00000
     71       0.5094      0.00000
     72       0.5124      0.00000
     73       0.5969      0.00000
     74       1.1752      0.00000
     75       1.3968      0.00000
     76       1.7650      0.00000
     77       1.9280      0.00000
     78       1.9315      0.00000
     79       2.5948      0.00000
     80       2.5953      0.00000
     81       2.6719      0.00000
     82       2.7414      0.00000
     83       2.7430      0.00000
     84       3.1244      0.00000
     85       3.1271      0.00000
     86       3.1242      0.00000
     87       3.2509      0.00000
     88       3.2559      0.00000
     89       3.2581      0.00000
     90       3.2632      0.00000
     91       3.4086      0.00000
     92       3.4111      0.00000
     93       3.8129      0.00000
     94       3.8210      0.00000
     95       4.0306      0.00000
     96       4.0789      0.00000

 k-point     8 :       0.2222    0.1111    0.0000
  band No.  band energies     occupation 
      1     -22.1185      2.00000
      2     -21.4664      2.00000
      3     -21.3026      2.00000
      4     -20.8182      2.00000
      5     -20.4969      2.00000
      6     -20.0181      2.00000
      7     -19.8574      2.00000
      8     -19.2302      2.00000
      9     -18.7639      2.00000
     10     -18.3047      2.00000
     11     -18.0072      2.00000
     12     -17.7172      2.00000
     13     -17.4157      2.00000
     14     -16.9963      2.00000
     15     -16.9826      2.00000
     16     -16.5681      2.00000
     17     -15.7756      2.00000
     18     -15.0639      2.00000
     19     -14.7822      2.00000
     20     -14.5251      2.00000
     21     -14.4394      2.00000
     22     -14.3436      2.00000
     23     -13.5102      2.00000
     24     -12.8704      2.00000
     25     -12.6833      2.00000
     26     -12.0039      2.00000
     27     -11.9975      2.00000
     28     -11.8761      2.00000
     29     -11.6239      2.00000
     30     -11.3317      2.00000
     31     -10.6379      2.00000
     32     -10.5419      2.00000
     33     -10.4455      2.00000
     34     -10.4232      2.00000
     35     -10.1993      2.00000
     36      -9.8479      2.00000
     37      -9.6756      2.00000
     38      -9.4265      2.00000
     39      -9.3232      2.00000
     40      -9.2348      2.00000
     41      -9.1035      2.00000
     42      -8.7882      2.00000
     43      -8.6686      2.00000
     44      -8.5339      2.00000
     45      -8.4748      2.00000
     46      -8.4173      2.00000
     47      -8.4072      2.00000
     48      -8.2974      2.00000
     49      -8.1114      2.00000
     50      -7.7546      2.00000
     51      -7.5782      2.00000
     52      -7.4118      2.00000
     53      -7.1129      2.00000
     54      -6.8569      2.00000
     55      -6.3549      2.00000
     56      -6.2917      2.00000
     57      -6.0601      2.00000
     58      -5.8754      2.00000
     59      -5.7163      2.00000
     60      -5.4692      2.00000
     61      -4.9950      2.00000
     62      -4.9811      2.00000
     63      -4.5513      2.00000
     64      -4.0613      2.00000
     65      -1.4714      0.00000
     66      -1.0833      0.00000
     67      -1.0510      0.00000
     68      -0.6461      0.00000
     69      -0.5611      0.00000
     70      -0.2861      0.00000
     71       0.3587      0.00000
     72       0.6957      0.00000
     73       1.0004      0.00000
     74       1.4968      0.00000
     75       1.5845      0.00000
     76       1.7522      0.00000
     77       1.8067      0.00000
     78       1.8663      0.00000
     79       2.3948      0.00000
     80       2.4726      0.00000
     81       2.5065      0.00000
     82       2.6187      0.00000
     83       2.7712      0.00000
     84       2.8469      0.00000
     85       2.7631      0.00000
     86       2.9152      0.00000
     87       2.9973      0.00000
     88       3.2204      0.00000
     89       3.3591      0.00000
     90       3.5745      0.00000
     91       3.6866      0.00000
     92       3.6746      0.00000
     93       3.6778      0.00000
     94       3.8158      0.00000
     95       3.9718      0.00000
     96       3.9820      0.00000

 k-point     9 :       0.3333    0.1111    0.0000
  band No.  band energies     occupation 
      1     -22.0097      2.00000
      2     -21.6827      2.00000
      3     -21.3570      2.00000
      4     -20.8720      2.00000
      5     -20.2305      2.00000
      6     -19.7536      2.00000
      7     -19.5962      2.00000
      8     -19.4368      2.00000
      9     -19.1256      2.00000
     10     -18.5068      2.00000
     11     -18.2043      2.00000
     12     -17.9075      2.00000
     13     -17.3269      2.00000
     14     -17.0922      2.00000
     15     -16.5254      2.00000
     16     -16.1128      2.00000
     17     -15.4934      2.00000
     18     -15.0334      2.00000
     19     -14.8564      2.00000
     20     -14.7463      2.00000
     21     -14.7010      2.00000
     22     -14.1230      2.00000
     23     -13.9114      2.00000
     24     -12.8397      2.00000
     25     -12.7247      2.00000
     26     -12.5849      2.00000
     27     -11.9626      2.00000
     28     -11.9558      2.00000
     29     -11.6190      2.00000
     30     -10.9019      2.00000
     31     -10.8852      2.00000
     32     -10.2498      2.00000
     33     -10.0696      2.00000
     34     -10.0322      2.00000
     35      -9.9148      2.00000
     36      -9.8979      2.00000
     37      -9.6822      2.00000
     38      -9.5915      2.00000
     39      -9.5654      2.00000
     40      -9.2982      2.00000
     41      -8.9969      2.00000
     42      -8.9206      2.00000
     43      -8.8743      2.00000
     44      -8.7306      2.00000
     45      -8.6792      2.00000
     46      -8.5512      2.00000
     47      -8.2353      2.00000
     48      -7.9906      2.00000
     49      -7.7770      2.00000
     50      -7.4632      2.00000
     51      -7.4558      2.00000
     52      -7.2681      2.00000
     53      -7.1170      2.00000
     54      -6.8150      2.00000
     55      -6.7538      2.00000
     56      -6.6940      2.00000
     57      -6.2734      2.00000
     58      -6.1644      2.00000
     59      -5.7999      2.00000
     60      -5.5912      2.00000
     61      -4.9744      2.00000
     62      -4.9610      2.00000
     63      -4.1982      2.00000
     64      -3.6561      2.00000
     65      -1.8848      0.00000
     66      -1.4408      0.00000
     67      -1.0139      0.00000
     68      -0.7734      0.00000
     69      -0.3260      0.00000
     70       0.1543      0.00000
     71       0.3260      0.00000
     72       0.8439      0.00000
     73       1.2883      0.00000
     74       1.4806      0.00000
     75       1.6467      0.00000
     76       1.7329      0.00000
     77       1.7501      0.00000
     78       2.0182      0.00000
     79       2.0960      0.00000
     80       2.3166      0.00000
     81       2.3992      0.00000
     82       2.4076      0.00000
     83       2.4739      0.00000
     84       2.5444      0.00000
     85       2.9270      0.00000
     86       2.9297      0.00000
     87       3.2143      0.00000
     88       3.2849      0.00000
     89       3.3807      0.00000
     90       3.3794      0.00000
     91       3.3696      0.00000
     92       3.6085      0.00000
     93       3.8293      0.00000
     94       3.8428      0.00000
     95       4.0540      0.00000
     96       4.1658      0.00000

 k-point    10 :       0.4444    0.1111    0.0000
  band No.  band energies     occupation 
      1     -21.8748      2.00000
      2     -21.8535      2.00000
      3     -21.3751      2.00000
      4     -20.8899      2.00000
      5     -19.9331      2.00000
      6     -19.9268      2.00000
      7     -19.4590      2.00000
      8     -19.4526      2.00000
      9     -18.9886      2.00000
     10     -18.9824      2.00000
     11     -18.0830      2.00000
     12     -18.0592      2.00000
     13     -17.2266      2.00000
     14     -17.2030      2.00000
     15     -16.2684      2.00000
     16     -15.8483      2.00000
     17     -15.3064      2.00000
     18     -15.1397      2.00000
     19     -15.1362      2.00000
     20     -15.1102      2.00000
     21     -14.3145      2.00000
     22     -14.3129      2.00000
     23     -13.4427      2.00000
     24     -13.4259      2.00000
     25     -12.8888      2.00000
     26     -12.2864      2.00000
     27     -12.2800      2.00000
     28     -11.9815      2.00000
     29     -11.2616      2.00000
     30     -11.2549      2.00000
     31     -10.4491      2.00000
     32     -10.4370      2.00000
     33      -9.9061      2.00000
     34      -9.8886      2.00000
     35      -9.8872      2.00000
     36      -9.8775      2.00000
     37      -9.4869      2.00000
     38      -9.3953      2.00000
     39      -9.3844      2.00000
     40      -9.3796      2.00000
     41      -9.3795      2.00000
     42      -9.3193      2.00000
     43      -8.8706      2.00000
     44      -8.8382      2.00000
     45      -8.7510      2.00000
     46      -8.4564      2.00000
     47      -8.2965      2.00000
     48      -7.6493      2.00000
     49      -7.6445      2.00000
     50      -7.4965      2.00000
     51      -7.1991      2.00000
     52      -7.1934      2.00000
     53      -7.1241      2.00000
     54      -7.1193      2.00000
     55      -6.6415      2.00000
     56      -6.6393      2.00000
     57      -6.5372      2.00000
     58      -6.5233      2.00000
     59      -5.7110      2.00000
     60      -5.6962      2.00000
     61      -4.9672      2.00000
     62      -4.9545      2.00000
     63      -4.0543      2.00000
     64      -3.4671      2.00000
     65      -2.0765      0.00000
     66      -1.5969      0.00000
     67      -0.9081      0.00000
     68      -0.8997      0.00000
     69      -0.0850      0.00000
     70      -0.0770      0.00000
     71       1.0138      0.00000
     72       1.0169      0.00000
     73       1.0398      0.00000
     74       1.0434      0.00000
     75       1.7083      0.00000
     76       1.8457      0.00000
     77       1.8473      0.00000
     78       1.9475      0.00000
     79       1.9536      0.00000
     80       2.2206      0.00000
     81       2.2209      0.00000
     82       2.3746      0.00000
     83       2.5197      0.00000
     84       2.8596      0.00000
     85       2.8661      0.00000
     86       2.9044      0.00000
     87       3.1282      0.00000
     88       3.1280      0.00000
     89       3.2779      0.00000
     90       3.5786      0.00000
     91       3.5796      0.00000
     92       3.5868      0.00000
     93       3.6820      0.00000
     94       3.7653      0.00000
     95       3.6946      0.00000
     96       4.2711      0.00000

 k-point    11 :      -0.4444    0.1111    0.0000
  band No.  band energies     occupation 
      1     -22.0097      2.00000
      2     -21.6827      2.00000
      3     -21.3570      2.00000
      4     -20.8720      2.00000
      5     -20.2304      2.00000
      6     -19.7536      2.00000
      7     -19.5962      2.00000
      8     -19.4368      2.00000
      9     -19.1256      2.00000
     10     -18.5068      2.00000
     11     -18.2043      2.00000
     12     -17.9075      2.00000
     13     -17.3269      2.00000
     14     -17.0922      2.00000
     15     -16.5254      2.00000
     16     -16.1128      2.00000
     17     -15.4934      2.00000
     18     -15.0334      2.00000
     19     -14.8564      2.00000
     20     -14.7464      2.00000
     21     -14.7010      2.00000
     22     -14.1230      2.00000
     23     -13.9114      2.00000
     24     -12.8397      2.00000
     25     -12.7247      2.00000
     26     -12.5849      2.00000
     27     -11.9626      2.00000
     28     -11.9558      2.00000
     29     -11.6190      2.00000
     30     -10.9019      2.00000
     31     -10.8852      2.00000
     32     -10.2498      2.00000
     33     -10.0696      2.00000
     34     -10.0322      2.00000
     35      -9.9147      2.00000
     36      -9.8979      2.00000
     37      -9.6822      2.00000
     38      -9.5915      2.00000
     39      -9.5654      2.00000
     40      -9.2982      2.00000
     41      -8.9969      2.00000
     42      -8.9206      2.00000
     43      -8.8743      2.00000
     44      -8.7305      2.00000
     45      -8.6793      2.00000
     46      -8.5512      2.00000
     47      -8.2353      2.00000
     48      -7.9906      2.00000
     49      -7.7770      2.00000
     50      -7.4632      2.00000
     51      -7.4559      2.00000
     52      -7.2681      2.00000
     53      -7.1170      2.00000
     54      -6.8149      2.00000
     55      -6.7538      2.00000
     56      -6.6940      2.00000
     57      -6.2734      2.00000
     58      -6.1644      2.00000
     59      -5.7999      2.00000
     60      -5.5912      2.00000
     61      -4.9744      2.00000
     62      -4.9610      2.00000
     63      -4.1982      2.00000
     64      -3.6561      2.00000
     65      -1.8848      0.00000
     66      -1.4408      0.00000
     67      -1.0139      0.00000
     68      -0.7734      0.00000
     69      -0.3260      0.00000
     70       0.1543      0.00000
     71       0.3260      0.00000
     72       0.8439      0.00000
     73       1.2883      0.00000
     74       1.4806      0.00000
     75       1.6467      0.00000
     76       1.7329      0.00000
     77       1.7501      0.00000
     78       2.0182      0.00000
     79       2.0960      0.00000
     80       2.3166      0.00000
     81       2.3992      0.00000
     82       2.4076      0.00000
     83       2.4739      0.00000
     84       2.5444      0.00000
     85       2.9268      0.00000
     86       2.9219      0.00000
     87       3.2711      0.00000
     88       3.2496      0.00000
     89       3.3787      0.00000
     90       3.3756      0.00000
     91       3.3669      0.00000
     92       3.6072      0.00000
     93       3.8317      0.00000
     94       3.8522      0.00000
     95       3.9551      0.00000
     96       4.1410      0.00000

 k-point    12 :      -0.3333    0.1111    0.0000
  band No.  band energies     occupation 
      1     -22.1185      2.00000
      2     -21.4664      2.00000
      3     -21.3026      2.00000
      4     -20.8182      2.00000
      5     -20.4969      2.00000
      6     -20.0181      2.00000
      7     -19.8574      2.00000
      8     -19.2302      2.00000
      9     -18.7639      2.00000
     10     -18.3047      2.00000
     11     -18.0072      2.00000
     12     -17.7172      2.00000
     13     -17.4157      2.00000
     14     -16.9963      2.00000
     15     -16.9826      2.00000
     16     -16.5681      2.00000
     17     -15.7756      2.00000
     18     -15.0639      2.00000
     19     -14.7822      2.00000
     20     -14.5251      2.00000
     21     -14.4394      2.00000
     22     -14.3436      2.00000
     23     -13.5102      2.00000
     24     -12.8704      2.00000
     25     -12.6833      2.00000
     26     -12.0038      2.00000
     27     -11.9975      2.00000
     28     -11.8761      2.00000
     29     -11.6239      2.00000
     30     -11.3317      2.00000
     31     -10.6379      2.00000
     32     -10.5419      2.00000
     33     -10.4455      2.00000
     34     -10.4233      2.00000
     35     -10.1993      2.00000
     36      -9.8479      2.00000
     37      -9.6756      2.00000
     38      -9.4265      2.00000
     39      -9.3232      2.00000
     40      -9.2347      2.00000
     41      -9.1035      2.00000
     42      -8.7882      2.00000
     43      -8.6686      2.00000
     44      -8.5339      2.00000
     45      -8.4748      2.00000
     46      -8.4173      2.00000
     47      -8.4073      2.00000
     48      -8.2973      2.00000
     49      -8.1114      2.00000
     50      -7.7546      2.00000
     51      -7.5782      2.00000
     52      -7.4117      2.00000
     53      -7.1129      2.00000
     54      -6.8569      2.00000
     55      -6.3548      2.00000
     56      -6.2917      2.00000
     57      -6.0601      2.00000
     58      -5.8754      2.00000
     59      -5.7163      2.00000
     60      -5.4692      2.00000
     61      -4.9950      2.00000
     62      -4.9811      2.00000
     63      -4.5513      2.00000
     64      -4.0613      2.00000
     65      -1.4714      0.00000
     66      -1.0833      0.00000
     67      -1.0511      0.00000
     68      -0.6461      0.00000
     69      -0.5611      0.00000
     70      -0.2861      0.00000
     71       0.3587      0.00000
     72       0.6957      0.00000
     73       1.0004      0.00000
     74       1.4968      0.00000
     75       1.5845      0.00000
     76       1.7522      0.00000
     77       1.8067      0.00000
     78       1.8663      0.00000
     79       2.3948      0.00000
     80       2.4726      0.00000
     81       2.5065      0.00000
     82       2.6186      0.00000
     83       2.7762      0.00000
     84       2.7759      0.00000
     85       2.8469      0.00000
     86       2.9155      0.00000
     87       3.0032      0.00000
     88       3.2209      0.00000
     89       3.2875      0.00000
     90       3.5794      0.00000
     91       3.6835      0.00000
     92       3.6878      0.00000
     93       3.6759      0.00000
     94       3.7933      0.00000
     95       3.9641      0.00000
     96       3.9001      0.00000

 k-point    13 :      -0.2222    0.1111    0.0000
  band No.  band energies     occupation 
      1     -22.1913      2.00000
      2     -21.2244      2.00000
      3     -21.2023      2.00000
      4     -20.7318      2.00000
      5     -20.7256      2.00000
      6     -20.2590      2.00000
      7     -20.2356      2.00000
      8     -18.8329      2.00000
      9     -18.3751      2.00000
     10     -18.3692      2.00000
     11     -17.5091      2.00000
     12     -17.5022      2.00000
     13     -17.4791      2.00000
     14     -17.4736      2.00000
     15     -17.0429      2.00000
     16     -16.9699      2.00000
     17     -15.9175      2.00000
     18     -15.3943      2.00000
     19     -15.3889      2.00000
     20     -14.0463      2.00000
     21     -13.9807      2.00000
     22     -13.9579      2.00000
[...]
     95       3.9737      0.00000
     96       4.1180      0.00000

 k-point    40 :      -0.2222    0.4444    0.0000
  band No.  band energies     occupation 
      1     -22.0278      2.00000
      2     -21.5489      2.00000
      3     -21.5266      2.00000
      4     -20.5714      2.00000
      5     -20.5651      2.00000
      6     -19.6241      2.00000
      7     -19.6139      2.00000
      8     -19.6007      2.00000
      9     -18.6811      2.00000
     10     -18.6751      2.00000
     11     -18.2245      2.00000
     12     -18.2179      2.00000
     13     -16.9319      2.00000
     14     -16.9243      2.00000
     15     -16.8280      2.00000
     16     -16.1074      2.00000
     17     -15.7819      2.00000
     18     -14.9214      2.00000
     19     -14.8988      2.00000
     20     -14.7353      2.00000
     21     -14.4305      2.00000
     22     -14.4248      2.00000
     23     -13.2619      2.00000
     24     -13.2459      2.00000
     25     -12.9975      2.00000
     26     -12.3466      2.00000
     27     -12.3460      2.00000
     28     -11.4956      2.00000
     29     -11.4281      2.00000
     30     -11.4145      2.00000
     31     -10.2347      2.00000
     32     -10.2282      2.00000
     33     -10.1090      2.00000
     34     -10.0917      2.00000
     35     -10.0787      2.00000
     36     -10.0512      2.00000
     37     -10.0240      2.00000
     38      -9.5201      2.00000
     39      -9.5020      2.00000
     40      -9.2358      2.00000
     41      -9.2304      2.00000
     42      -8.7584      2.00000
     43      -8.7529      2.00000
     44      -8.5729      2.00000
     45      -8.5680      2.00000
     46      -8.3808      2.00000
     47      -8.3760      2.00000
     48      -8.1481      2.00000
     49      -8.1426      2.00000
     50      -7.3130      2.00000
     51      -7.2960      2.00000
     52      -7.2865      2.00000
     53      -7.1044      2.00000
     54      -7.0958      2.00000
     55      -6.6147      2.00000
     56      -6.2793      2.00000
     57      -6.2770      2.00000
     58      -6.2543      2.00000
     59      -5.8904      2.00000
     60      -5.8853      2.00000
     61      -4.8450      2.00000
     62      -4.5879      2.00000
     63      -4.5827      2.00000
     64      -3.5968      2.00000
     65      -1.9284      0.00000
     66      -1.1598      0.00000
     67      -1.1148      0.00000
     68      -1.1035      0.00000
     69      -0.0103      0.00000
     70      -0.0049      0.00000
     71       0.8014      0.00000
     72       0.8015      0.00000
     73       0.8193      0.00000
     74       1.4842      0.00000
     75       1.4877      0.00000
     76       1.6217      0.00000
     77       1.9929      0.00000
     78       2.0898      0.00000
     79       2.1003      0.00000
     80       2.2946      0.00000
     81       2.2962      0.00000
     82       2.3668      0.00000
     83       2.6732      0.00000
     84       2.6590      0.00000
     85       2.8176      0.00000
     86       2.8180      0.00000
     87       2.8890      0.00000
     88       3.3528      0.00000
     89       3.5852      0.00000
     90       3.5857      0.00000
     91       3.6548      0.00000
     92       3.6890      0.00000
     93       4.1100      0.00000
     94       4.1150      0.00000
     95       4.0399      0.00000
     96       4.0274      0.00000

 k-point    41 :      -0.1111    0.4444    0.0000
  band No.  band energies     occupation 
      1     -22.0097      2.00000
      2     -21.6827      2.00000
      3     -21.3570      2.00000
      4     -20.8720      2.00000
      5     -20.2305      2.00000
      6     -19.7536      2.00000
      7     -19.5962      2.00000
      8     -19.4368      2.00000
      9     -19.1256      2.00000
     10     -18.5068      2.00000
     11     -18.2043      2.00000
     12     -17.9075      2.00000
     13     -17.3269      2.00000
     14     -17.0922      2.00000
     15     -16.5254      2.00000
     16     -16.1128      2.00000
     17     -15.4934      2.00000
     18     -15.0334      2.00000
     19     -14.8564      2.00000
     20     -14.7463      2.00000
     21     -14.7010      2.00000
     22     -14.1230      2.00000
     23     -13.9114      2.00000
     24     -12.8397      2.00000
     25     -12.7247      2.00000
     26     -12.5849      2.00000
     27     -11.9626      2.00000
     28     -11.9558      2.00000
     29     -11.6190      2.00000
     30     -10.9019      2.00000
     31     -10.8852      2.00000
     32     -10.2498      2.00000
     33     -10.0696      2.00000
     34     -10.0322      2.00000
     35      -9.9147      2.00000
     36      -9.8979      2.00000
     37      -9.6822      2.00000
     38      -9.5915      2.00000
     39      -9.5654      2.00000
     40      -9.2982      2.00000
     41      -8.9969      2.00000
     42      -8.9206      2.00000
     43      -8.8743      2.00000
     44      -8.7304      2.00000
     45      -8.6793      2.00000
     46      -8.5512      2.00000
     47      -8.2353      2.00000
     48      -7.9906      2.00000
     49      -7.7770      2.00000
     50      -7.4632      2.00000
     51      -7.4559      2.00000
     52      -7.2681      2.00000
     53      -7.1170      2.00000
     54      -6.8149      2.00000
     55      -6.7538      2.00000
     56      -6.6940      2.00000
     57      -6.2734      2.00000
     58      -6.1644      2.00000
     59      -5.7999      2.00000
     60      -5.5912      2.00000
     61      -4.9744      2.00000
     62      -4.9610      2.00000
     63      -4.1982      2.00000
     64      -3.6561      2.00000
     65      -1.8848      0.00000
     66      -1.4408      0.00000
     67      -1.0139      0.00000
     68      -0.7734      0.00000
     69      -0.3260      0.00000
     70       0.1543      0.00000
     71       0.3260      0.00000
     72       0.8439      0.00000
     73       1.2883      0.00000
     74       1.4806      0.00000
     75       1.6467      0.00000
     76       1.7329      0.00000
     77       1.7501      0.00000
     78       2.0182      0.00000
     79       2.0960      0.00000
     80       2.3166      0.00000
     81       2.3992      0.00000
     82       2.4076      0.00000
     83       2.4739      0.00000
     84       2.5444      0.00000
     85       2.9270      0.00000
     86       2.9278      0.00000
     87       3.2143      0.00000
     88       3.2849      0.00000
     89       3.3807      0.00000
     90       3.3698      0.00000
     91       3.3836      0.00000
     92       3.6093      0.00000
     93       3.8311      0.00000
     94       3.8411      0.00000
     95       3.9783      0.00000
     96       4.1210      0.00000


--------------------------------------------------------------------------------------------------------


 soft charge-density along one line, spin component           1
         0         1         2         3         4         5         6         7         8         9
 total charge-density along one line
 
 pseudopotential strength for first ion, spin component:           1
 10.229   0.019  -0.000   0.000   0.000   0.000   0.000  -0.000
  0.019  -0.002  -0.000  -0.000  -0.000   0.000   0.000  -0.000
 -0.000  -0.000  -4.343   0.000   0.000  -0.018   0.000  -0.000
  0.000  -0.000   0.000  -4.337   0.000   0.000  -0.015   0.000
  0.000  -0.000   0.000   0.000  -4.343  -0.000   0.000  -0.018
  0.000   0.000  -0.018   0.000  -0.000  -0.772  -0.000   0.000
  0.000   0.000   0.000  -0.015   0.000  -0.000  -0.772   0.000
 -0.000  -0.000  -0.000   0.000  -0.018   0.000   0.000  -0.772
 total augmentation occupancy for first ion, spin component:           1
  1.469  -1.127  -0.001  -0.000   0.000  -0.000  -0.000   0.000
 -1.127   1.065   0.001   0.001  -0.001   0.000   0.000  -0.000
 -0.001   0.001   1.225  -0.001   0.000   0.222  -0.000  -0.000
 -0.000   0.001  -0.001   0.933  -0.000  -0.000   0.102  -0.000
  0.000  -0.001   0.000  -0.000   1.223  -0.000  -0.000   0.222
 -0.000   0.000   0.222  -0.000  -0.000   0.046  -0.000  -0.000
 -0.000   0.000  -0.000   0.102  -0.000  -0.000   0.013  -0.000
  0.000  -0.000  -0.000  -0.000   0.222  -0.000  -0.000   0.046


------------------------ aborting loop because EDIFF is reached ----------------------------------------


    CHARGE:  cpu time   18.7012: real time   18.7285
    FORLOC:  cpu time    0.0260: real time    0.0252
    FORNL :  cpu time   63.5433: real time   63.6314
    STRESS:  cpu time  189.2672: real time  189.5868
    FORHAR:  cpu time    0.0600: real time    0.0593
    MIXING:  cpu time    0.0050: real time    0.0048
    OFIELD:  cpu time    0.0000: real time    0.0001

  FORCE on cell =-STRESS in cart. coord.  units (eV):
  Direction    XX          YY          ZZ          XY          YZ          ZX
  --------------------------------------------------------------------------------------
  Alpha Z    49.40652    49.40652    49.40652
  Ewald   24961.70949 24961.72046-29259.08631     0.00573     0.00251    -0.00460
  Hartree 24433.91579 24433.92097-24252.35974     0.00163     0.00185    -0.00298
  E(xc)    -466.52308  -466.52306  -485.21260     0.00002    -0.00000    -0.00000
  Local  -50772.56427-50772.58055 51864.20489    -0.00709    -0.00430     0.00737
  n-local  -112.41994  -112.42012  -102.63466    -0.00001     0.00009     0.00007
  augment   -12.34491   -12.34426   -11.33149     0.00056     0.00001    -0.00001
  Kinetic  1918.66327  1918.66323  2196.82995     0.00005     0.00025    -0.00034
  Fock        0.00000     0.00000     0.00000     0.00000     0.00000     0.00000
  -------------------------------------------------------------------------------------
  Total      -0.15712    -0.15682    -0.18345     0.00090     0.00041    -0.00049
  in kB      -0.14907    -0.14878    -0.17404     0.00085     0.00039    -0.00047
  external pressure =       -0.16 kB  Pullay stress =        0.00 kB


 VOLUME and BASIS-vectors are now :
 -----------------------------------------------------------------------------
  energy-cutoff  :      500.00
  volume of cell :     1688.76
      direct lattice vectors                 reciprocal lattice vectors
     9.874235153  0.000000000  0.000000000     0.101273667  0.058470379  0.000000000
    -4.937117577  8.551338486  0.000000000     0.000000000  0.116940757  0.000000000
     0.000000000  0.000000000 20.000000000     0.000000000  0.000000000  0.050000000

  length of vectors
     9.874235153  9.874235153 20.000000000     0.116940757  0.116940757  0.050000000


 FORCES acting on ions
    electron-ion (+dipol)            ewald-force                    non-local-force                 convergence-correction
 -----------------------------------------------------------------------------------------------
   0.664E-01 -.749E+00 -.111E+01   -.679E-01 0.753E+00 0.110E+01   0.218E-01 0.457E-02 -.234E-02   0.751E-03 -.260E-03 -.160E-03
   -.691E-01 -.747E+00 -.881E+00   0.703E-01 0.750E+00 0.878E+00   -.219E-01 0.461E-02 -.247E-02   -.213E-03 0.609E-05 0.697E-03
   -.172E+00 -.983E-01 -.474E+00   0.171E+00 0.983E-01 0.476E+00   -.837E-02 -.490E-02 0.205E-01   0.792E-03 -.660E-04 -.274E-03
   0.174E+00 -.100E+00 -.139E+01   -.172E+00 0.995E-01 0.139E+01   0.868E-02 -.497E-02 -.114E-01   -.112E-02 0.422E-03 0.600E-05
   -.664E+00 -.385E+00 -.188E+00   0.701E+00 0.407E+00 0.196E+00   0.749E-01 0.433E-01 -.253E-01   -.455E-03 -.111E-03 0.124E-03
   -.271E-02 -.185E+01 0.409E+01   0.196E-02 0.196E+01 -.409E+01   -.166E-03 0.852E-01 0.357E-01   0.947E-03 -.269E-03 0.331E-03
   0.681E+00 -.393E+00 -.202E+01   -.719E+00 0.415E+00 0.204E+01   -.754E-01 0.435E-01 -.803E-01   -.529E-04 0.233E-03 0.392E-03
   -.166E-02 0.198E+00 -.144E+01   0.114E-02 -.198E+00 0.145E+01   0.590E-04 0.974E-02 -.890E-02   0.407E-03 -.120E-03 -.386E-03
   -.614E+00 0.437E+00 -.111E+01   0.617E+00 -.439E+00 0.111E+01   0.150E-01 0.169E-01 -.923E-02   -.255E-03 -.688E-03 -.126E-02
   -.160E+01 0.925E+00 0.374E+01   0.170E+01 -.980E+00 -.374E+01   0.738E-01 -.427E-01 0.268E-01   -.583E-04 0.170E-03 0.174E-03
   0.160E+01 0.926E+00 0.407E+01   -.169E+01 -.980E+00 -.408E+01   -.739E-01 -.425E-01 0.350E-01   0.915E-03 -.391E-03 0.474E-03
   0.612E+00 0.434E+00 -.849E+00   -.614E+00 -.436E+00 0.849E+00   -.149E-01 0.169E-01 -.204E-02   -.196E-03 -.535E-03 -.161E-02
   0.103E-02 -.170E-02 -.500E+00   -.915E-03 0.832E-03 0.489E+00   0.756E-04 -.204E-03 0.160E-01   -.927E-04 0.753E-03 -.169E-02
   -.686E+00 0.313E+00 -.113E+01   0.689E+00 -.315E+00 0.113E+01   -.708E-02 -.214E-01 -.936E-02   0.269E-03 0.333E-03 -.171E-02
   0.152E-02 0.768E+00 -.220E+00   -.140E-02 -.812E+00 0.230E+00   0.121E-04 -.866E-01 -.258E-01   -.180E-03 0.720E-03 -.818E-03
   0.683E+00 0.317E+00 -.111E+01   -.686E+00 -.317E+00 0.111E+01   0.710E-02 -.212E-01 -.224E-02   -.380E-05 -.517E-03 -.954E-03
   -.682E+00 -.316E+00 -.105E+01   0.686E+00 0.317E+00 0.105E+01   -.666E-02 0.213E-01 0.778E-03   -.479E-03 0.126E-03 0.111E-03
   0.988E-03 -.769E+00 -.128E+00   -.199E-02 0.812E+00 0.139E+00   -.451E-03 0.867E-01 -.292E-01   0.674E-03 -.404E-03 0.569E-03
   0.684E+00 -.314E+00 -.127E+01   -.687E+00 0.315E+00 0.126E+01   0.735E-02 0.211E-01 0.374E-02   -.405E-03 0.667E-03 0.632E-03
   -.125E-02 0.244E-03 -.544E+00   0.698E-03 0.439E-03 0.531E+00   -.136E-03 0.126E-03 0.229E-01   0.398E-03 -.406E-03 -.423E-04
   -.615E+00 -.433E+00 -.122E+01   0.618E+00 0.435E+00 0.121E+01   0.152E-01 -.167E-01 -.369E-02   -.761E-03 -.304E-04 -.938E-03
   -.160E+01 -.929E+00 0.388E+01   0.170E+01 0.984E+00 -.388E+01   0.735E-01 0.427E-01 0.259E-01   0.311E-04 0.853E-04 0.214E-03
   0.159E+01 -.919E+00 0.372E+01   -.168E+01 0.973E+00 -.373E+01   -.734E-01 0.422E-01 0.431E-01   0.790E-03 -.695E-04 0.937E-03
   0.614E+00 -.435E+00 -.135E+01   -.616E+00 0.437E+00 0.134E+01   -.147E-01 -.168E-01 0.142E-01   -.685E-03 0.402E-04 -.686E-03
   0.186E-02 -.196E+00 -.644E+00   -.170E-02 0.196E+00 0.649E+00   -.873E-04 -.964E-02 0.104E-01   -.348E-03 -.225E-03 -.154E-02
   -.670E+00 0.387E+00 -.299E+00   0.707E+00 -.408E+00 0.310E+00   0.753E-01 -.435E-01 -.259E-01   0.270E-03 -.107E-03 -.149E-02
   0.325E-02 0.185E+01 0.383E+01   -.398E-02 -.196E+01 -.383E+01   -.367E-03 -.849E-01 0.256E-01   0.246E-03 -.681E-04 0.576E-03
   0.668E+00 0.384E+00 -.910E-01   -.705E+00 -.404E+00 0.104E+00   -.751E-01 -.429E-01 -.282E-01   -.412E-03 -.577E-03 -.115E-02
   -.172E+00 0.985E-01 -.142E+01   0.170E+00 -.981E-01 0.142E+01   -.871E-02 0.497E-02 -.107E-01   0.926E-03 -.192E-03 -.120E-02
   0.172E+00 0.964E-01 -.689E+00   -.171E+00 -.966E-01 0.693E+00   0.840E-02 0.483E-02 0.885E-02   -.558E-03 0.558E-03 -.881E-03
   0.677E-01 0.750E+00 -.112E+01   -.690E-01 -.753E+00 0.112E+01   0.218E-01 -.473E-02 -.139E-01   0.462E-03 0.155E-03 -.135E-02
   -.674E-01 0.749E+00 -.108E+01   0.689E-01 -.753E+00 0.107E+01   -.217E-01 -.484E-02 -.253E-03   -.614E-03 0.148E-03 -.514E-03
 -----------------------------------------------------------------------------------------------
   -.146E-02 0.912E-03 0.202E-01   -.117E-13 0.810E-14 0.666E-15   -.782E-04 0.210E-03 -.176E-02   0.987E-03 -.621E-03 -.134E-01
 
 
 POSITION                                       TOTAL-FORCE (eV/Angst)
 -----------------------------------------------------------------------------------
      1.23329      0.71105     10.00000         0.021115      0.008037     -0.006211
      3.70383      0.71105      9.99949        -0.020971      0.007803     -0.005074
      6.17176      0.71283     10.00000        -0.008830     -0.005051      0.022502
      8.63959      0.71282     10.00172         0.008978     -0.005167     -0.002672
     -0.00416      2.84804      9.99579         0.111806      0.064778     -0.017065
      2.46855      2.84552      9.98311         0.000045      0.193995      0.030349
      4.94129      2.84804     10.00000        -0.113987      0.065745     -0.058522
      7.40567      2.85002     10.00218        -0.000031      0.009954     -0.000414
     -1.23613      4.98821      9.99992         0.017452      0.014393     -0.009838
      1.23001      4.99075      9.98367         0.168359     -0.097253      0.023662
      3.70710      4.99075      9.98316        -0.168099     -0.097138      0.030539
      6.17324      4.98821      9.99957        -0.017175      0.014571     -0.003257
     -2.46856      7.12612     10.00001         0.000116     -0.000336      0.003051
     -0.00086      7.12775      9.99979        -0.003519     -0.022149     -0.010887
      2.46856      7.13092      9.99571        -0.000028     -0.129615     -0.017399
      4.93797      7.12775     10.00000         0.003838     -0.022275     -0.006379
     -0.00086      1.42358     10.00000        -0.003140      0.022329     -0.003068
      2.46857      1.42042      9.99551        -0.000758      0.129686     -0.017499
      4.93797      1.42359     10.00076         0.004111      0.021865     -0.002675
      7.40568      1.42522     10.00062        -0.000276      0.000388      0.009924
     -1.23613      3.56313     10.00041         0.017929     -0.014442     -0.008157
      1.23001      3.56059      9.98340         0.167828      0.097748      0.021053
      3.70709      3.56061      9.98431        -0.166553      0.095993      0.032421
      6.17324      3.56314     10.00128        -0.017020     -0.014453      0.003721
     -2.46856      5.70132     10.00000        -0.000259     -0.010031      0.013608
     -0.00418      5.70330      9.99585         0.112722     -0.065086     -0.015785
      2.46857      5.70582      9.98347        -0.000829     -0.193975      0.021260
      4.94129      5.70329      9.99547        -0.112337     -0.064142     -0.016874
     -3.70247      7.83851     10.00160        -0.009303      0.005223     -0.002328
     -1.23465      7.83851     10.00000         0.008753      0.005168      0.011847
      1.23329      7.84029      9.99981         0.020900     -0.008180     -0.015015
      3.70383      7.84029     10.00000        -0.020838     -0.008384     -0.004816
 -----------------------------------------------------------------------------------
    total drift:                               -0.000552      0.000501      0.005013


--------------------------------------------------------------------------------------------------------



  FREE ENERGIE OF THE ION-ELECTRON SYSTEM (eV)
  ---------------------------------------------------
  free  energy   TOTEN  =      -295.07716299 eV

  energy  without entropy=     -295.07576993  energy(sigma->0) =     -295.07646646
 


--------------------------------------------------------------------------------------------------------


    POTLOK:  cpu time    0.2530: real time    0.2543


--------------------------------------------------------------------------------------------------------


 writing wavefunctions
     LOOP+:  cpu time  703.2001: real time  705.4802
    4ORBIT:  cpu time    0.0000: real time    0.0000

 total amount of memory used by VASP MPI-rank0   294289. kBytes
=======================================================================

   base      :      30000. kBytes
   nonlr-proj:      15440. kBytes
   fftplans  :      16807. kBytes
   grid      :     118651. kBytes
   one-center:         98. kBytes
   wavefun   :     113293. kBytes
 
  
  
 General timing and accounting informations for this job:
 ========================================================
  
                  Total CPU time used (sec):      755.133
                            User time (sec):      686.212
                          System time (sec):       68.922
                         Elapsed time (sec):      839.142
  
                   Maximum memory used (kb):           0.
                   Average memory used (kb):           0.
  
                          Minor page faults:     23680551
                          Major page faults:           68
                 Voluntary context switches:        15690
