#     Step Nr.          Time[fs]        Kin.[a.u.]          Temp[K]            Pot.[a.u.]        Cons Qty[a.u.]        UsedTime[s]
      2441         1220.500000         0.129653393       317.374065750     -1224.750650742     -1224.608159290        39.711500000
      2442         1221.000000         0.127650968       312.472398406     -1224.748647746     -1224.608123835        15.320600000
      2443         1221.500000         0.128075672       313.512016666     -1224.749163247     -1224.608180433        14.121700000
      2444         1222.000000         0.130124508       318.527293306     -1224.751354505     -1224.608288780        14.457900000
      2445         1222.500000         0.132256205       323.745399110     -1224.753614429     -1224.608382751        13.120600000
      2446         1223.000000         0.133134636       325.895681395     -1224.754558887     -1224.608414401        13.165000000
      2447         1223.500000         0.132329004       323.923601835     -1224.753753569     -1224.608380563        13.176200000
      2448         1224.000000         0.130375788       319.142392202     -1224.751772454     -1224.608319131        13.086800000
      2449         1224.500000         0.128254939       313.950838312     -1224.749642026     -1224.608276887        13.073400000
      2450         1225.000000         0.126714474       310.179988836     -1224.748132070     -1224.608275628        13.181900000
      2451         1225.500000         0.125948214       308.304286032     -1224.747414121     -1224.608292960        13.142700000
      2452         1226.000000         0.125868216       308.108461240     -1224.747356571     -1224.608285065        13.107000000
      2453         1226.500000         0.126605956       309.914349989     -1224.748093275     -1224.608254141        13.209800000
      2454         1227.000000         0.128428553       314.375821603     -1224.749956531     -1224.608265111        13.156900000
      2455         1227.500000         0.130959596       320.571475444     -1224.752606153     -1224.608353914        13.162100000
      2456         1228.000000         0.132815056       325.113392223     -1224.754595304     -1224.608457635        11.941200000
      2457         1228.500000         0.132455503       324.233254310     -1224.754291246     -1224.608483221        11.933400000
      2458         1229.000000         0.129438231       316.847377655     -1224.751226996     -1224.608406958        13.149400000
      2459         1229.500000         0.124803925       305.503221720     -1224.746492121     -1224.608278330        13.120900000
      2460         1230.000000         0.120427482       294.790277014     -1224.742030864     -1224.608167008        11.945900000
      2461         1230.500000         0.117991857       288.828193745     -1224.739577233     -1224.608123954        13.154400000
      2462         1231.000000         0.118203127       289.345355039     -1224.739850939     -1224.608162394        13.163100000
      2463         1231.500000         0.120568225       295.134797979     -1224.742333838     -1224.608256751        11.968800000
      2464         1232.000000         0.123757791       302.942424387     -1224.745649496     -1224.608359587        13.239800000
      2465         1232.500000         0.126306258       309.180729940     -1224.748286739     -1224.608425162        13.115300000
      2466         1233.000000         0.127278345       311.560268837     -1224.749292221     -1224.608435525        13.107400000
      2467         1233.500000         0.126525745       309.718004052     -1224.748540542     -1224.608413844        14.315800000
      2468         1234.000000         0.124405850       304.528787494     -1224.746417852     -1224.608389177        14.326200000
      2469         1234.500000         0.121444467       297.279719272     -1224.743432035     -1224.608343871        11.925500000
      2470         1235.000000         0.118495172       290.060243145     -1224.740410231     -1224.608251657        13.212800000
      2471         1235.500000         0.116901481       286.159101348     -1224.738747223     -1224.608163786        14.385500000
      2472         1236.000000         0.117760660       288.262255670     -1224.739632471     -1224.608172190        13.124200000
      2473         1236.500000         0.120790079       295.677866811     -1224.742791365     -1224.608284516        13.149300000
      2474         1237.000000         0.124275105       304.208741215     -1224.746413777     -1224.608404981        13.104500000
      2475         1237.500000         0.126321649       309.218405620     -1224.748520528     -1224.608448442        13.113100000
      2476         1238.000000         0.126062026       308.582882813     -1224.748241422     -1224.608412563        11.957100000
      2477         1238.500000         0.123822724       303.101373319     -1224.745947018     -1224.608341697        11.953000000
      2478         1239.000000         0.120576826       295.155851370     -1224.742646791     -1224.608272508        11.927300000
      2479         1239.500000         0.117383772       287.339684298     -1224.739417970     -1224.608222950        13.181200000
      2480         1240.000000         0.115070973       281.678263782     -1224.737094062     -1224.608199160        11.976300000
      2481         1240.500000         0.114113003       279.333281510     -1224.736146848     -1224.608198288        13.184000000
      2482         1241.000000         0.114635758       280.612915636     -1224.736699422     -1224.608217412        13.111500000
      2483         1241.500000         0.116432470       285.011025092     -1224.738548213     -1224.608259580        13.072900000
      2484         1242.000000         0.118929778       291.124098683     -1224.741120959     -1224.608325755        13.157200000
      2485         1242.500000         0.121192219       296.662250788     -1224.743471915     -1224.608405557        13.129400000
      2486         1243.000000         0.122128218       298.953451033     -1224.744473849     -1224.608463314        13.128000000
      2487         1243.500000         0.121048091       296.309444109     -1224.743382794     -1224.608444821        12.001600000
      2488         1244.000000         0.118353409       289.713226149     -1224.740589544     -1224.608339447        12.012600000
      2489         1244.500000         0.115589678       282.947982545     -1224.737708706     -1224.608216425        13.172000000
      2490         1245.000000         0.114489537       280.254985418     -1224.736557652     -1224.608160524        13.122200000
      2491         1245.500000         0.115827384       283.529854830     -1224.737928401     -1224.608189304        13.150800000
      2492         1246.000000         0.119120312       291.590500959     -1224.741298038     -1224.608262638        13.107400000
      2493         1246.500000         0.123148888       301.451911868     -1224.745404304     -1224.608337560        11.943800000
      2494         1247.000000         0.126629211       309.971275002     -1224.748935953     -1224.608386582        11.936600000
      2495         1247.500000         0.128698691       315.037083852     -1224.751013113     -1224.608392307        11.982300000
      2496         1248.000000         0.129190757       316.241594843     -1224.751468713     -1224.608354175        12.058000000
      2497         1248.500000         0.128633609       314.877773040     -1224.750853186     -1224.608294409        11.995700000
      2498         1249.000000         0.127906935       313.098972922     -1224.750084013     -1224.608250829        13.162200000
      2499         1249.500000         0.127697819       312.587084151     -1224.749874280     -1224.608249463        11.909700000
      2500         1250.000000         0.128133751       313.654186834     -1224.750342460     -1224.608281296        13.163300000
      2501         1250.500000         0.128870614       315.457928309     -1224.751115929     -1224.608317802        11.967700000
      2502         1251.000000         0.129460620       316.902183362     -1224.751729633     -1224.608341686        13.117700000
      2503         1251.500000         0.129623870       317.301798151     -1224.751898982     -1224.608348228        11.957500000
      2504         1252.000000         0.129367749       316.674847513     -1224.751623266     -1224.608329328        13.175500000
      2505         1252.500000         0.129050364       315.897931865     -1224.751270340     -1224.608294738        12.036300000
      2506         1253.000000         0.129173875       316.200269447     -1224.751383749     -1224.608285858        13.163000000
      2507         1253.500000         0.129835778       317.820520667     -1224.752087167     -1224.608328861        11.960700000
      2508         1254.000000         0.130418886       319.247890036     -1224.752730065     -1224.608390382        13.176200000
      2509         1254.500000         0.130061286       318.372532200     -1224.752383495     -1224.608403357        11.922900000
      2510         1255.000000         0.128535074       314.636571994     -1224.750795886     -1224.608344120        13.091400000
      2511         1255.500000         0.126562527       309.808040653     -1224.748739577     -1224.608262782        11.976700000
      2512         1256.000000         0.125193902       306.457831394     -1224.747328705     -1224.608223301        13.200600000
      2513         1256.500000         0.124971155       305.912576488     -1224.747115871     -1224.608236394        12.025200000
      2514         1257.000000         0.125743585       307.803381886     -1224.747912055     -1224.608263778        11.981700000
      2515         1257.500000         0.127129770       311.196576151     -1224.749301424     -1224.608271035        11.943700000
      2516         1258.000000         0.128964306       315.687274454     -1224.751123228     -1224.608262778        13.136400000
      2517         1258.500000         0.131252022       321.287295758     -1224.753414989     -1224.608271636        13.121400000
      2518         1259.000000         0.133766615       327.442680336     -1224.755971067     -1224.608318184        13.110500000
      2519         1259.500000         0.135794670       332.407086399     -1224.758064203     -1224.608388456        13.147900000
      2520         1260.000000         0.136360588       333.792376124     -1224.758673408     -1224.608436929        13.139100000
      2521         1260.500000         0.134886857       330.184882984     -1224.757168947     -1224.608411289        13.138900000
      2522         1261.000000         0.131892190       322.854340521     -1224.754058542     -1224.608300550        13.203300000
      2523         1261.500000         0.129052528       315.903229772     -1224.751083083     -1224.608169769        13.146000000
      2524         1262.000000         0.128259307       313.961531595     -1224.750229999     -1224.608115104        13.138300000
      2525         1262.500000         0.130294804       318.944153559     -1224.752324045     -1224.608179159        13.220400000
      2526         1263.000000         0.134221035       328.555039402     -1224.756387966     -1224.608322678        11.992900000
      2527         1263.500000         0.137920858       337.611707218     -1224.760218858     -1224.608459759        11.990800000
      2528         1264.000000         0.139358458       341.130760581     -1224.761700619     -1224.608509885        12.019300000
      2529         1264.500000         0.137764083       337.227945373     -1224.760037690     -1224.608447064        13.201700000
      2530         1265.000000         0.134018170       328.058452511     -1224.756157264     -1224.608318026        13.195800000
      2531         1265.500000         0.130008998       318.244538452     -1224.752026603     -1224.608201883        13.096600000
      2532         1266.000000         0.127537388       312.194370952     -1224.749489380     -1224.608141691        13.108700000
      2533         1266.500000         0.127619234       312.394718582     -1224.749561333     -1224.608137485        13.149900000
      2534         1267.000000         0.130363394       319.112053210     -1224.752345713     -1224.608183770        13.137600000
      2535         1267.500000         0.135044288       330.570251645     -1224.757109285     -1224.608272881        13.129000000
      2536         1268.000000         0.140274181       343.372325886     -1224.762439027     -1224.608379370        13.222600000
      2537         1268.500000         0.144392697       353.453899216     -1224.766644488     -1224.608472883        12.005800000
      2538         1269.000000         0.145943577       357.250245556     -1224.768243641     -1224.608527343        11.998800000
      2539         1269.500000         0.144143208       352.843184314     -1224.766418420     -1224.608508084        12.011900000
      2540         1270.000000         0.139388378       341.203999714     -1224.761541366     -1224.608390845        13.171100000
      2541         1270.500000         0.133495528       326.779094953     -1224.755464779     -1224.608211669        13.161900000
      2542         1271.000000         0.129090934       315.997241513     -1224.750915014     -1224.608070932        14.337300000
      2543         1271.500000         0.128169668       313.742106532     -1224.749981379     -1224.608063149        14.373200000
      2544         1272.000000         0.130797611       320.174957656     -1224.752736377     -1224.608195110        13.100800000
      2545         1272.500000         0.135019174       330.508777056     -1224.757140091     -1224.608382471        11.959100000
      2546         1273.000000         0.138058004       337.947422314     -1224.760304436     -1224.608513326        11.989600000
      2547         1273.500000         0.137961522       337.711248692     -1224.760203770     -1224.608514381        12.006100000
      2548         1274.000000         0.134678192       329.674099067     -1224.756795087     -1224.608394054        13.177100000
      2549         1274.500000         0.129929319       318.049495951     -1224.751886626     -1224.608239349        13.195600000
      2550         1275.000000         0.125992129       308.411783139     -1224.747847047     -1224.608141900        13.202400000
      2551         1275.500000         0.124411267       304.542047194     -1224.746241471     -1224.608122403        13.183700000
      2552         1276.000000         0.125581457       307.406513313     -1224.747438561     -1224.608154970        11.946500000
      2553         1276.500000         0.129000296       315.775372929     -1224.750919697     -1224.608223448        11.964300000
      2554         1277.000000         0.133554816       326.924224797     -1224.755560090     -1224.608315959        12.101300000
      2555         1277.500000         0.137788993       337.288920574     -1224.759876848     -1224.608405451        11.958900000
      2556         1278.000000         0.140345113       343.545958656     -1224.762477647     -1224.608457057        11.945600000
      2557         1278.500000         0.140492546       343.906854509     -1224.762607590     -1224.608446278        11.954400000
      2558         1279.000000         0.138479884       338.980127823     -1224.760514947     -1224.608372671        11.987600000
      2559         1279.500000         0.135502277       331.691346816     -1224.757424780     -1224.608266178        13.212500000
      2560         1280.000000         0.133201390       326.059084356     -1224.755032930     -1224.608181116        13.211700000
      2561         1280.500000         0.132841572       325.178298640     -1224.754652334     -1224.608166237        13.148800000
      2562         1281.000000         0.134607217       329.500361907     -1224.756477396     -1224.608231657        13.173800000
      2563         1281.500000         0.137454462       336.470033731     -1224.759434636     -1224.608347753        11.938900000
      2564         1282.000000         0.139571283       341.651727240     -1224.761659210     -1224.608461575        11.920200000
      2565         1282.500000         0.139215778       340.781499127     -1224.761349769     -1224.608513507        11.998100000
      2566         1283.000000         0.135640667       332.030108053     -1224.757713922     -1224.608458343        12.029400000
      2567         1283.500000         0.129720304       317.537854981     -1224.751632604     -1224.608302730        13.149600000
      2568         1284.000000         0.123771581       302.976180259     -1224.745502653     -1224.608126836        13.126700000
      2569         1284.500000         0.120361829       294.629567014     -1224.741998993     -1224.608038540        11.994100000
      2570         1285.000000         0.120787000       295.670329202     -1224.742465079     -1224.608085616        12.006600000
      2571         1285.500000         0.124358728       304.413437860     -1224.746174811     -1224.608230495        15.455000000
      2572         1286.000000         0.128901321       315.533094292     -1224.750872730     -1224.608393396        11.935300000
      2573         1286.500000         0.131943932       322.980998207     -1224.754011348     -1224.608497485        11.940900000
      2574         1287.000000         0.131910491       322.899139488     -1224.753969660     -1224.608497560        11.984800000
      2575         1287.500000         0.128813750       315.318733575     -1224.750765221     -1224.608398230        13.117800000
      2576         1288.000000         0.124177941       303.970896870     -1224.745977104     -1224.608254319        13.131400000
      2577         1288.500000         0.120199686       294.232662778     -1224.741882472     -1224.608146519        13.127300000
      2578         1289.000000         0.118547068       290.187275972     -1224.740207290     -1224.608132955        13.144000000
      2579         1289.500000         0.119503988       292.529688203     -1224.741231190     -1224.608209602        13.189500000
      2580         1290.000000         0.121993274       298.623123967     -1224.743822395     -1224.608321990        12.026100000
      2581         1290.500000         0.124326653       304.334922415     -1224.746236874     -1224.608414339        11.981200000
      2582         1291.000000         0.125036046       306.071420957     -1224.746982961     -1224.608462899        11.937500000
      2583         1291.500000         0.123308247       301.842003109     -1224.745248285     -1224.608468284        11.952700000
      2584         1292.000000         0.119093401       291.524625472     -1224.740972569     -1224.608419896        11.920500000
      2585         1292.500000         0.113277646       277.288439394     -1224.735018813     -1224.608294528        13.128000000
      2586         1293.000000         0.107834955       263.965464589     -1224.729395779     -1224.608127068        13.132800000
      2587         1293.500000         0.105165648       257.431359004     -1224.726621460     -1224.608035505        13.122600000
      2588         1294.000000         0.106490331       260.674006707     -1224.728003027     -1224.608106883        13.119600000
      2589         1294.500000         0.110736098       271.067072368     -1224.732418127     -1224.608292202        13.203900000
      2590         1295.000000         0.115191836       281.974120021     -1224.737024095     -1224.608460044        11.996100000
      2591         1295.500000         0.117357109       287.274417019     -1224.739216259     -1224.608505896        11.983300000
      2592         1296.000000         0.116501549       285.180121065     -1224.738243603     -1224.608408615        13.117300000
      2593         1296.500000         0.114008645       279.077828467     -1224.735556168     -1224.608234381        13.158000000
      2594         1297.000000         0.112391812       275.120038112     -1224.733787076     -1224.608102904        13.120700000
      2595         1297.500000         0.113568026       277.999251332     -1224.734943325     -1224.608104583        13.152300000
      2596         1298.000000         0.117583446       287.828459600     -1224.739054470     -1224.608223321        13.151300000
      2597         1298.500000         0.122788412       300.569514802     -1224.744372529     -1224.608361080        11.932100000
      2598         1299.000000         0.127140512       311.222870725     -1224.748777958     -1224.608440586        11.940300000
      2599         1299.500000         0.129343100       316.614511000     -1224.750968025     -1224.608455277        11.967700000
      2600         1300.000000         0.129067788       315.940584329     -1224.750647611     -1224.608437837        12.009200000
      2601         1300.500000         0.126596764       309.891849292     -1224.748117062     -1224.608405938        12.127700000
      2602         1301.000000         0.122592858       300.090826300     -1224.744020170     -1224.608340236        13.140000000
      2603         1301.500000         0.118289948       289.557881483     -1224.739568208     -1224.608218079        13.101000000
      2604         1302.000000         0.115614271       283.008184287     -1224.736735362     -1224.608087707        13.203000000
      2605         1302.500000         0.116363834       284.843013953     -1224.737440673     -1224.608070817        13.124000000
      2606         1303.000000         0.120592742       295.194811553     -1224.741800433     -1224.608230384        13.089500000
      2607         1303.500000         0.125886645       308.153572598     -1224.747303381     -1224.608469913        11.936500000
      2608         1304.000000         0.128720133       315.089571749     -1224.750252309     -1224.608617246        11.987500000
      2609         1304.500000         0.126879831       310.584758741     -1224.748330882     -1224.608568426        11.983000000
      2610         1305.000000         0.121008383       296.212243875     -1224.742207008     -1224.608347688        11.968300000
      2611         1305.500000         0.114277593       279.736175476     -1224.735184805     -1224.608086930        13.124300000
      2612         1306.000000         0.110458387       270.387273656     -1224.731196257     -1224.607947683        13.170300000
      2613         1306.500000         0.111611614       273.210216988     -1224.732374275     -1224.608003171        13.114300000
      2614         1307.000000         0.117023406       286.457557929     -1224.737938065     -1224.608187710        13.105800000
      2615         1307.500000         0.124045554       303.646831246     -1224.745112252     -1224.608374819        11.991600000
      2616         1308.000000         0.129861171       317.882678169     -1224.750997329     -1224.608481698        11.941500000
      2617         1308.500000         0.132765397       324.991833370     -1224.753879726     -1224.608498800        12.005200000
      2618         1309.000000         0.132428689       324.167617320     -1224.753464296     -1224.608459481        12.029600000
      2619         1309.500000         0.129497959       316.993584668     -1224.750429004     -1224.608393937        11.914500000
      2620         1310.000000         0.125173951       306.408993502     -1224.745973605     -1224.608300716        13.144600000
      2621         1310.500000         0.121144470       296.545366071     -1224.741772842     -1224.608166763        13.157800000
      2622         1311.000000         0.119553576       292.651072711     -1224.740018478     -1224.608040341        13.124600000
      2623         1311.500000         0.122143271       298.990297163     -1224.742577879     -1224.608047887        13.132100000
      2624         1312.000000         0.128598553       314.791958550     -1224.749195161     -1224.608249684        13.123800000
      2625         1312.500000         0.135914293       332.699906855     -1224.756738705     -1224.608519742        11.970200000
      2626         1313.000000         0.140153313       343.076457808     -1224.761069784     -1224.608655834        11.987000000
      2627         1313.500000         0.139242344       340.846527337     -1224.760021278     -1224.608562591        12.002400000
      2628         1314.000000         0.134385360       328.957285711     -1224.754865553     -1224.608307004        13.259900000
      2629         1314.500000         0.129163077       316.173837624     -1224.749350975     -1224.608056273        11.951400000
      2630         1315.000000         0.127161444       311.274110196     -1224.747209725     -1224.607957305        13.129100000
      2631         1315.500000         0.129866822       317.896511491     -1224.749951642     -1224.608034920        11.966800000
      2632         1316.000000         0.136211660       333.427822011     -1224.756422975     -1224.608204136        11.956400000
      2633         1316.500000         0.143675053       351.697202678     -1224.764002314     -1224.608364916        11.985200000
      2634         1317.000000         0.149731922       366.523605240     -1224.770114097     -1224.608466328        12.082700000
      2635         1317.500000         0.152715839       373.827830697     -1224.773086815     -1224.608502227        12.030300000
      2636         1318.000000         0.152050895       372.200138067     -1224.772346823     -1224.608473630        12.075800000
      2637         1318.500000         0.148295813       363.008201411     -1224.768444079     -1224.608370789        11.945700000
      2638         1319.000000         0.143200998       350.536780711     -1224.763139634     -1224.608203920        13.135300000
      2639         1319.500000         0.139387802       341.202590348     -1224.759127619     -1224.608046088        14.371500000
      2640         1320.000000         0.139193311       340.726501707     -1224.758857573     -1224.608010662        13.211500000
      2641         1320.500000         0.143090612       350.266570253     -1224.762854799     -1224.608150976        13.213900000
      2642         1321.000000         0.149020696       364.782618679     -1224.768981207     -1224.608388616        11.960100000
      2643         1321.500000         0.153492872       375.729903990     -1224.773600411     -1224.608577630        11.994300000
      2644         1322.000000         0.153667548       376.157487724     -1224.773771156     -1224.608615284        12.110000000
      2645         1322.500000         0.148936781       364.577205062     -1224.768869372     -1224.608484204        11.967900000
      2646         1323.000000         0.141229480       345.710769606     -1224.760891242     -1224.608250918        11.955800000
      2647         1323.500000         0.133978479       327.961294191     -1224.753400780     -1224.608046723        13.142500000
      2648         1324.000000         0.130191836       318.692102068     -1224.749521441     -1224.607987888        11.939700000
      2649         1324.500000         0.130809710       320.204574341     -1224.750197969     -1224.608080186        11.964000000
      2650         1325.000000         0.134558722       329.381650735     -1224.754064176     -1224.608231757        11.947000000
      2651         1325.500000         0.139167782       340.664010901     -1224.758758747     -1224.608352728        11.972500000
      2652         1326.000000         0.142687206       349.279088249     -1224.762302043     -1224.608412884        12.110200000
      2653         1326.500000         0.144064708       352.651026353     -1224.763653238     -1224.608423083        12.043300000
      2654         1327.000000         0.143111103       350.316730176     -1224.762634982     -1224.608394508        11.962600000
      2655         1327.500000         0.140367871       343.601667401     -1224.759785477     -1224.608323421        11.946900000
      2656         1328.000000         0.137090416       335.578898994     -1224.756363732     -1224.608213282        13.104900000
      2657         1328.500000         0.135069087       330.630957371     -1224.754203239     -1224.608107491        13.127800000
      2658         1329.000000         0.135921340       332.717157511     -1224.754994767     -1224.608079963        13.149100000
      2659         1329.500000         0.140033175       342.782376577     -1224.759170280     -1224.608177366        13.077700000
      2660         1330.000000         0.145936521       357.232972737     -1224.765231964     -1224.608370362        11.938200000
      2661         1330.500000         0.150780823       369.091173141     -1224.770229950     -1224.608559401        12.009200000
      2662         1331.000000         0.151829285       371.657665737     -1224.771306498     -1224.608622679        11.997200000
      2663         1331.500000         0.148224823       362.834429486     -1224.767540206     -1224.608494833        11.937700000
      2664         1332.000000         0.141851466       347.233307742     -1224.760879294     -1224.608239432        11.944500000
      2665         1332.500000         0.136348148       333.761926079     -1224.755137209     -1224.608031134        13.127900000
      2666         1333.000000         0.134676285       329.669430390     -1224.753413080     -1224.608008454        13.128600000
      2667         1333.500000         0.137211702       335.875790107     -1224.756057438     -1224.608147058        13.094800000
      2668         1334.000000         0.141965008       347.511243116     -1224.760953320     -1224.608319958        11.951400000