LAMMPS data file via write_data, version 15 May 2015, timestep = 3000000

4121 atoms
12 atom types
4016 bonds
10 bond types
5421 angles
13 angle types
9072 dihedrals
18 dihedral types

0.0000000000000000e+00 8.4000000000000000e+01 xlo xhi
0.0000000000000000e+00 3.3948000000000000e+01 ylo yhi
0.0000000000000000e+00 1.3600000000000000e+01 zlo zhi

Masses

1	12.011  	# CA
2	12.011		# CT
3	15.9994		# OS
4	12.011		# CF
5	15.9994		# OH
6	1.0008		# HO
7	12.011  	# CK
8	15.9994		# OK
9	1.0008		# HW
10	15.9994		# OW
11	22.9900		# Na
12	35.4500		# Cl

Atoms # full

4 1 1 0.0000000000000000e+00 2.7998871814614135e+00 1.2124652350749450e+00 3.3995678941851564e+00 0 0 0
5 1 1 0.0000000000000000e+00 4.1999658538947724e+00 1.2124161144371015e+00 3.3993758435666837e+00 0 0 0
82 1 1 0.0000000000000000e+00 6.9990528791243800e-01 2.4249507313825163e+00 3.3998949720667415e+00 0 0 0
83 1 1 0.0000000000000000e+00 2.0999625360324816e+00 2.4247657809668808e+00 3.4010264678506497e+00 0 0 0
84 1 1 0.0000000000000000e+00 2.8000208638513557e+00 3.6373038057818117e+00 3.4011078401455777e+00 0 0 0
85 1 1 0.0000000000000000e+00 4.1999368700105961e+00 3.6372688801757698e+00 3.4001737051519143e+00 0 0 0
86 1 1 0.0000000000000000e+00 4.8999327583078616e+00 2.4249550138802851e+00 3.3999656213581222e+00 0 0 0
87 1 1 0.0000000000000000e+00 6.2999659439184539e+00 2.4248590005276225e+00 3.4000905005398212e+00 0 0 0
162 1 1 0.0000000000000000e+00 6.9994974925054487e-01 4.8496807311197898e+00 3.3996025476300953e+00 0 0 0
163 1 1 0.0000000000000000e+00 2.0999592676059415e+00 4.8494870888129791e+00 3.4021918113494620e+00 0 0 0
164 1 1 0.0000000000000000e+00 2.8000762316231467e+00 6.0623023586799070e+00 3.4016265962147370e+00 0 0 0
165 1 1 0.0000000000000000e+00 4.2000131315984142e+00 6.0621434843556710e+00 3.4001971520596004e+00 0 0 0
166 1 1 0.0000000000000000e+00 4.8999472344119530e+00 4.8497659473360928e+00 3.4000497153624343e+00 0 0 0
167 1 1 0.0000000000000000e+00 6.2999707524695747e+00 4.8496823077450895e+00 3.4000601245215925e+00 0 0 0
242 1 1 0.0000000000000000e+00 6.9992567827726926e-01 7.2746158635040823e+00 3.4004935927445166e+00 0 0 0
243 1 1 0.0000000000000000e+00 2.0999482432568231e+00 7.2745981514249989e+00 3.4003984983281121e+00 0 0 0
246 1 1 0.0000000000000000e+00 4.8999652166790355e+00 7.2746260769627176e+00 3.4000180795655455e+00 0 0 0
247 1 1 0.0000000000000000e+00 6.2999820902582764e+00 7.2745262709812870e+00 3.4001996473455072e+00 0 0 0
245 1 1 0.0000000000000000e+00 4.1999421730663267e+00 8.4869512694110156e+00 3.3999506245874209e+00 0 0 0
6 1 1 0.0000000000000000e+00 4.8999770280459316e+00 9.3082868876463156e-05 3.3999273400014252e+00 0 0 0
2 1 1 0.0000000000000000e+00 6.9999840086771226e-01 1.1743132713555392e-04 3.3998660309252458e+00 0 0 0
8 1 1 0.0000000000000000e+00 6.9999734759587646e+00 1.2124830724001030e+00 3.4000800638659903e+00 0 0 0
88 1 1 0.0000000000000000e+00 6.9999910356586437e+00 3.6373794282606484e+00 3.4000989089608211e+00 0 0 0
1 1 1 0.0000000000000000e+00 1.9699305241260845e-05 1.2125001859979603e+00 3.4004345410326215e+00 0 0 0
3 1 1 0.0000000000000000e+00 2.0999495525338485e+00 9.4317596982307350e-05 3.3994643183720479e+00 0 0 0
3084 517 9 4.2359999999999998e-01 4.6744057658089764e+00 3.8853914487710401e+00 4.8190728336810634e-01 1 2 1
3771 746 9 4.2359999999999998e-01 1.9953132732327119e+00 6.3204568216351493e+00 1.1355037866849191e+00 1 -1 1
1957 141 10 -8.4719999999999995e-01 3.7026967882767297e+00 5.2544070284040423e+00 6.5339347908696848e+00 1 -2 -1
1956 141 9 4.2359999999999998e-01 3.5647204298927275e+00 4.2764176484497955e+00 6.3774116880440461e+00 1 -2 -1
1702 56 10 -8.4719999999999995e-01 3.9061712795022272e+00 2.4364795433141562e+00 6.4754039122892006e+00 0 1 -1
1797 88 9 4.2359999999999998e-01 3.5424872379701537e+00 6.9200974436794986e+00 6.2918158723883257e+00 0 1 -1
1796 88 9 4.2359999999999998e-01 3.1968230839599978e+00 8.3097045940014187e+00 5.5068732579974560e+00 0 1 -1
1701 56 9 4.2359999999999998e-01 4.6964584843037294e+00 1.9125195823834880e+00 6.7930706192010355e+00 0 1 -1
3083 517 9 4.2359999999999998e-01 5.5008931093671229e+00 2.4921027097518187e+00 2.7625661502132803e-01 1 2 1
2653 373 10 -8.4719999999999995e-01 5.9332113904975587e+00 5.9219090065561819e-01 6.8517121186014105e+00 0 0 -1
2993 487 9 4.2359999999999998e-01 8.7653858119918979e+00 1.3772279671440259e+01 1.0591574280390811e+01 -1 1 0
2619 362 9 4.2359999999999998e-01 2.8097509296927656e+00 8.6560547709905633e-01 1.2205828967598322e+01 0 -1 -1
3772 746 10 -8.4719999999999995e-01 1.2197543431234261e+00 6.6406341489851588e+00 5.9144962674091650e-01 1 -1 1
1700 56 9 4.2359999999999998e-01 3.1346908924979915e+00 1.8181315640335545e+00 6.3255242060741725e+00 0 1 -1
1955 141 9 4.2359999999999998e-01 4.5888587747728584e+00 5.3997834729584131e+00 6.9739152159862314e+00 1 -2 -1
2336 268 9 4.2359999999999998e-01 5.3345395520585681e+00 3.7939061544443731e+00 6.5785250463352654e+00 0 -2 -1
2651 373 9 4.2359999999999998e-01 6.8337606031948699e+00 3.8655904610082475e-01 7.2347631731469093e+00 0 0 -1
4038 835 9 4.2359999999999998e-01 1.1784350721059507e+01 1.6058027788377892e+01 1.8743191725939864e-01 0 0 1
2820 429 9 4.2359999999999998e-01 7.6792654666669131e+00 2.7066889194576147e+00 4.2402241002950797e-01 0 2 0
9 1 1 0.0000000000000000e+00 8.4000214759365406e+00 1.2124021167843182e+00 3.4000774553055679e+00 0 0 0
12 1 1 0.0000000000000000e+00 1.1200017175883772e+01 1.2124790137324650e+00 3.4000587190825580e+00 0 0 0
13 1 1 0.0000000000000000e+00 1.2599996133017392e+01 1.2123907207275266e+00 3.3999012626450846e+00 0 0 0
89 1 1 0.0000000000000000e+00 8.4000087983540368e+00 3.6372716941056606e+00 3.4000538791130941e+00 0 0 0
90 1 1 0.0000000000000000e+00 9.1000228265337721e+00 2.4249466007357294e+00 3.4001203859815692e+00 0 0 0
91 1 1 0.0000000000000000e+00 1.0500023649272739e+01 2.4248126044715534e+00 3.4002520669880751e+00 0 0 0
92 1 1 0.0000000000000000e+00 1.1199996088505072e+01 3.6373650299351401e+00 3.4002563018984051e+00 0 0 0
93 1 1 0.0000000000000000e+00 1.2599997534815355e+01 3.6372330289234749e+00 3.4002084997534916e+00 0 0 0
94 1 1 0.0000000000000000e+00 1.3299988778741215e+01 2.4249147833064351e+00 3.4000668495276773e+00 0 0 0
168 1 1 0.0000000000000000e+00 7.0000025328176987e+00 6.0622221863448402e+00 3.4000538276374197e+00 0 0 0
169 1 1 0.0000000000000000e+00 8.4000206539511346e+00 6.0621312094640487e+00 3.4000029000766872e+00 0 0 0
170 1 1 0.0000000000000000e+00 9.1000067098216686e+00 4.8497943433737731e+00 3.3999387903994891e+00 0 0 0
171 1 1 0.0000000000000000e+00 1.0499988119490043e+01 4.8496929067238037e+00 3.4001068219014980e+00 0 0 0
172 1 1 0.0000000000000000e+00 1.1199959279130345e+01 6.0622773975994271e+00 3.4003488027566218e+00 0 0 0
173 1 1 0.0000000000000000e+00 1.2600023882320773e+01 6.0621951207989824e+00 3.4006178980965323e+00 0 0 0
174 1 1 0.0000000000000000e+00 1.3300047076831980e+01 4.8497954676603570e+00 3.4004576061740424e+00 0 0 0
250 1 1 0.0000000000000000e+00 9.1000057315260783e+00 7.2746296457267734e+00 3.3999351091669365e+00 0 0 0
251 1 1 0.0000000000000000e+00 1.0499971586674668e+01 7.2745379401433787e+00 3.4000180795035768e+00 0 0 0
254 1 1 0.0000000000000000e+00 1.3300021653251918e+01 7.2746497565184196e+00 3.3999981441234284e+00 0 0 0
249 1 1 0.0000000000000000e+00 8.3999804293945974e+00 8.4869223250861978e+00 3.3997260470640174e+00 0 0 0
253 1 1 0.0000000000000000e+00 1.2599994600317464e+01 8.4869629725316500e+00 3.3999671479224416e+00 0 0 0
14 1 1 0.0000000000000000e+00 1.3300079982961698e+01 1.1574315122732082e-04 3.3993980598336551e+00 0 0 0
10 1 1 0.0000000000000000e+00 9.1000559790781370e+00 1.0317378633689097e-04 3.4000692306217308e+00 0 0 0
2707 391 10 -8.4719999999999995e-01 8.2732920819547360e+00 5.0737071568445984e+00 6.4154358119659634e+00 1 0 -1
2705 391 9 4.2359999999999998e-01 9.2405852764515863e+00 4.8290929457245229e+00 6.3482918103860912e+00 1 0 -1
3240 569 9 4.2359999999999998e-01 1.2168601495086518e+01 4.3460812194815919e+00 6.3865219050813238e+00 0 -2 0
3258 575 9 4.2359999999999998e-01 1.0098351299294491e+01 4.2867827609546945e+00 2.3951587225023463e-01 0 -1 1
3241 569 10 -8.4719999999999995e-01 1.1212001134050396e+01 4.6370573455657969e+00 6.3707394022375343e+00 0 -2 0
2104 190 10 -8.4719999999999995e-01 1.2487015874884474e+01 1.0837703540102313e+00 6.6599368771220027e+00 1 0 -1
1695 54 9 4.2359999999999998e-01 1.2749333412635469e+01 3.5105130262863091e+00 2.9412158674301042e-01 -1 0 0
1817 95 9 4.2359999999999998e-01 1.3370942824901851e+01 5.9801747366250941e+00 1.0987012080457413e+01 0 -1 -1
2985 484 9 4.2359999999999998e-01 8.6938368812675098e+00 5.5016967909447541e+00 2.3414775843361260e-01 1 0 1
3334 600 10 -8.4719999999999995e-01 9.4832944206413288e+00 6.9887794733938335e+00 1.3353686896627639e+01 0 4 0
3333 600 9 4.2359999999999998e-01 9.4996776246033043e+00 7.8559593268375076e+00 2.5141308321084233e-01 0 4 1
2986 484 10 -8.4719999999999995e-01 8.4227518661278786e+00 4.5412256193354423e+00 1.7083781591220645e-01 1 0 1
3106 524 10 -8.4719999999999995e-01 1.3707751691788848e+01 3.3392543790516345e+00 6.9223517804415264e+00 0 2 0
2882 450 9 4.2359999999999998e-01 2.1009172920511485e+00 1.1572427854520004e+01 5.5328796944158221e+00 1 -3 0
244 1 1 0.0000000000000000e+00 2.7999339471900102e+00 8.4870459798606248e+00 3.3998004920894056e+00 0 0 0
322 1 1 0.0000000000000000e+00 6.9989938588144485e-01 9.6994948436434072e+00 3.3997596229403659e+00 0 0 0
323 1 1 0.0000000000000000e+00 2.0999398833230978e+00 9.6993385530361618e+00 3.3989577101850150e+00 0 0 0
324 1 1 0.0000000000000000e+00 2.7999795648722281e+00 1.0911986378501037e+01 3.3992903353533270e+00 0 0 0
325 1 1 0.0000000000000000e+00 4.1999326598321494e+00 1.0911883628966258e+01 3.3999104654930310e+00 0 0 0
326 1 1 0.0000000000000000e+00 4.8999361252676650e+00 9.6995100488020274e+00 3.3999416864537575e+00 0 0 0
327 1 1 0.0000000000000000e+00 6.2999785710278466e+00 9.6993862238940807e+00 3.3999666192099731e+00 0 0 0
402 1 1 0.0000000000000000e+00 6.9995452989618734e-01 1.2124416070321928e+01 3.4000102549239717e+00 0 0 0
403 1 1 0.0000000000000000e+00 2.0999524223338568e+00 1.2124349608236793e+01 3.4000451419906237e+00 0 0 0
404 1 1 0.0000000000000000e+00 2.7999555580973841e+00 1.3336915905530434e+01 3.4003358970638642e+00 0 0 0
405 1 1 0.0000000000000000e+00 4.1999199308874031e+00 1.3336807748382578e+01 3.4000429452677587e+00 0 0 0
406 1 1 0.0000000000000000e+00 4.8999169423306306e+00 1.2124465084299882e+01 3.4000398134857988e+00 0 0 0
407 1 1 0.0000000000000000e+00 6.2999519748598161e+00 1.2124344360265299e+01 3.4000635806603152e+00 0 0 0
482 1 1 0.0000000000000000e+00 6.9996298013507863e-01 1.4549260371420107e+01 3.3998459401217067e+00 0 0 0
483 1 1 0.0000000000000000e+00 2.0999573584142044e+00 1.4549225048141379e+01 3.4000228831317925e+00 0 0 0
484 1 1 0.0000000000000000e+00 2.7998603513061320e+00 1.5761740815314775e+01 3.3996965317286230e+00 0 0 0
485 1 1 0.0000000000000000e+00 4.1999547238093582e+00 1.5761633637219678e+01 3.3998506268831008e+00 0 0 0
486 1 1 0.0000000000000000e+00 4.8999365313481462e+00 1.4549294768448796e+01 3.4000739899356742e+00 0 0 0
487 1 1 0.0000000000000000e+00 6.2999607128499520e+00 1.4549233735355344e+01 3.4000517954848051e+00 0 0 0
408 1 1 0.0000000000000000e+00 6.9999771600799345e+00 1.3336879878627713e+01 3.4000616368139323e+00 0 0 0
328 1 1 0.0000000000000000e+00 6.9999783901315267e+00 1.0911942862472877e+01 3.4000012089237721e+00 0 0 0
3157 541 10 -8.4719999999999995e-01 3.6528907910003499e+00 1.4653474069200609e+01 3.5438975181534210e-01 1 0 1
3156 541 9 4.2359999999999998e-01 3.4120084135792355e+00 1.3877938634437758e+01 1.3370848210648289e+01 1 0 0
2918 462 9 4.2359999999999998e-01 7.2532934082645593e+00 1.4893075664756720e+01 6.4669051747690798e+00 1 0 0
3458 642 9 4.2359999999999998e-01 6.8136905971405852e+00 1.0656211991586588e+01 1.2810002830074049e+01 0 0 0
2744 404 9 4.2359999999999998e-01 4.0123130785992895e+00 1.3582199622639289e+01 6.3659250661997371e+00 0 -1 -1
2884 450 10 -8.4719999999999995e-01 2.6415144903920602e+00 1.1507465965414369e+01 6.3716495306837668e+00 1 -3 0
1845 104 9 4.2359999999999998e-01 4.6308900742559000e+00 1.6226231387280894e+01 6.2570846140710907e+00 1 2 -1
4089 852 9 4.2359999999999998e-01 1.7733468895656623e+00 1.2661956696853705e+01 1.8576236719101114e-01 -1 -1 1
3460 642 10 -8.4719999999999995e-01 6.4403889082034720e+00 9.7297426508174887e+00 1.2762026021887147e+01 0 0 0
2746 404 10 -8.4719999999999995e-01 4.0587078936292489e+00 1.4579391370737421e+01 6.4247185636788542e+00 0 -1 -1
3540 669 9 4.2359999999999998e-01 4.4207928297461656e+00 1.1634039095277949e+01 1.3388160429548627e+01 1 0 0
3541 669 10 -8.4719999999999995e-01 3.5232396386940850e+00 1.1849817589695840e+01 1.3003663263871598e+01 1 0 0
2863 443 10 -8.4719999999999995e-01 7.5781524428834421e+00 1.0483453794976596e+01 6.3969521215388845e+00 1 0 0
2861 443 9 4.2359999999999998e-01 7.7214115247314306e+00 1.0124250948009548e+01 5.4747535703655350e+00 1 0 0
3304 590 10 -8.4719999999999995e-01 1.1449301665076737e+01 1.5292669332581355e+01 9.3209374577376600e+00 0 1 0
2054 174 9 4.2359999999999998e-01 1.1485394482834144e+01 9.1388725987666426e+00 1.2819138105991581e+01 1 1 -1
2055 174 9 4.2359999999999998e-01 1.3021198994923513e+01 9.5364848205045014e+00 1.3206224460012415e+01 1 1 -1
2919 462 9 4.2359999999999998e-01 8.0008986382195761e+00 1.5074393353823259e+01 7.9073345677017466e+00 1 0 0
488 1 1 0.0000000000000000e+00 7.0000085338560911e+00 1.5761782340143030e+01 3.4001554431415166e+00 0 0 0
248 1 1 0.0000000000000000e+00 7.0000018185509472e+00 8.4870408631049692e+00 3.4000248153084729e+00 0 0 0
252 1 1 0.0000000000000000e+00 1.1199985068457332e+01 8.4870494268671699e+00 3.3999945951620449e+00 0 0 0
329 1 1 0.0000000000000000e+00 8.4000106317758476e+00 1.0911835048033717e+01 3.3999685421557828e+00 0 0 0
330 1 1 0.0000000000000000e+00 9.1000042652817559e+00 9.6995106893276812e+00 3.3997139050076632e+00 0 0 0
331 1 1 0.0000000000000000e+00 1.0500018762162769e+01 9.6994115347931213e+00 3.3999515184846940e+00 0 0 0
332 1 1 0.0000000000000000e+00 1.1200023448313342e+01 1.0911947396297347e+01 3.3999443282410504e+00 0 0 0
333 1 1 0.0000000000000000e+00 1.2600033649773426e+01 1.0911856701046101e+01 3.3999254602396416e+00 0 0 0
334 1 1 0.0000000000000000e+00 1.3300024560463658e+01 9.6995502630534443e+00 3.3999193485834094e+00 0 0 0
409 1 1 0.0000000000000000e+00 8.3999913514626297e+00 1.3336774330923960e+01 3.4000283887321787e+00 0 0 0
410 1 1 0.0000000000000000e+00 9.1000067950224022e+00 1.2124432378821599e+01 3.3999980242826036e+00 0 0 0
411 1 1 0.0000000000000000e+00 1.0500039036344733e+01 1.2124318161605554e+01 3.3999567625579665e+00 0 0 0
412 1 1 0.0000000000000000e+00 1.1200048191498555e+01 1.3336880398753214e+01 3.3999849475332549e+00 0 0 0
413 1 1 0.0000000000000000e+00 1.2600051242049643e+01 1.3336779864252323e+01 3.3999837779059150e+00 0 0 0
414 1 1 0.0000000000000000e+00 1.3300047651130987e+01 1.2124445333334906e+01 3.3999279506276801e+00 0 0 0
489 1 1 0.0000000000000000e+00 8.3999869691723834e+00 1.5761700421804804e+01 3.4000090367901561e+00 0 0 0
490 1 1 0.0000000000000000e+00 9.0999896041748389e+00 1.4549338943760960e+01 3.4000030761413345e+00 0 0 0
491 1 1 0.0000000000000000e+00 1.0500040611684136e+01 1.4549215235563599e+01 3.4000152027635493e+00 0 0 0
492 1 1 0.0000000000000000e+00 1.1200050193036274e+01 1.5761779906513928e+01 3.4000354978670821e+00 0 0 0
493 1 1 0.0000000000000000e+00 1.2600038550230726e+01 1.5761661706690207e+01 3.3999608555254834e+00 0 0 0
494 1 1 0.0000000000000000e+00 1.3300047486511053e+01 1.4549327523196640e+01 3.3999340526652255e+00 0 0 0
1541 3 9 4.2359999999999998e-01 8.7678062599047006e+00 1.3205141589251953e+01 7.3216909235040353e+00 0 0 -1
1543 3 10 -8.4719999999999995e-01 9.3609281174553800e+00 1.2485053857722322e+01 6.9615784802009912e+00 0 0 -1
1963 143 10 -8.4719999999999995e-01 1.2959146519145756e+01 9.7842369293664664e+00 6.5437016863848481e+00 0 -6 -1
2776 414 10 -8.4719999999999995e-01 7.4302541770442074e+00 1.2155924601441958e+01 1.3430111697725357e+01 0 -2 -1
2139 202 9 4.2359999999999998e-01 2.0093600090533004e+00 1.6828468571593131e+01 1.0757236154372871e+01 0 -4 -1
2966 478 9 4.2359999999999998e-01 8.5960292226184851e+00 9.8362161820149883e+00 3.9533022903787002e-01 0 1 1
2053 173 10 -8.4719999999999995e-01 1.3268847580109874e+01 1.5015271672360365e+01 1.3232803654034230e+01 0 0 -1
1542 3 9 4.2359999999999998e-01 8.8392275156174573e+00 1.1636476707060249e+01 6.8735657924676445e+00 0 0 -1
2046 171 9 4.2359999999999998e-01 1.2518928580852704e+01 1.1429314895137971e+01 6.3073511633089572e+00 0 3 -1
2045 171 9 4.2359999999999998e-01 1.1219906348745843e+01 1.2340175744909967e+01 6.6940039188710960e+00 0 3 -1
2047 171 10 -8.4719999999999995e-01 1.2208462202954893e+01 1.2238789597455366e+01 6.8057098664392406e+00 0 3 -1
2968 478 10 -8.4719999999999995e-01 9.5937964117043713e+00 9.7701263949973374e+00 3.8567306094391274e-01 0 1 1
2967 478 9 4.2359999999999998e-01 9.9874447214122668e+00 1.0684121463584773e+01 2.8741094151121149e-01 0 1 1
2791 419 10 -8.4719999999999995e-01 1.5402395234845510e+00 1.3278278043252623e-01 9.0705930488241258e+00 0 1 -1
3926 798 9 4.2359999999999998e-01 3.1591273511469098e-01 1.1140477695090048e+01 1.3351007484008482e+01 0 2 0
2989 485 10 -8.4719999999999995e-01 5.0765989690026911e+00 5.6676777224289161e+00 3.5045382615558773e-01 0 1 1
2987 485 9 4.2359999999999998e-01 5.5267919464505777e+00 6.4864945434520891e+00 7.0663572792135920e-01 0 1 1
3155 541 9 4.2359999999999998e-01 2.8638997009142124e+00 1.5261410233812960e+01 4.4331387224394797e-01 1 0 1
2821 429 10 -8.4719999999999995e-01 7.1981643356920832e+00 1.9592157326746666e+00 1.3565955214347122e+01 0 2 -1
3426 631 9 4.2359999999999998e-01 2.2806603117047284e+00 8.2210372646569478e+00 7.6777961991767505e+00 0 1 0
1798 88 10 -8.4719999999999995e-01 3.3645020339130558e+00 7.8978774522076156e+00 6.4025753445306997e+00 0 1 -1
3030 499 9 4.2359999999999998e-01 4.8570179873584065e+00 3.9493544251544643e-01 9.1051584165801529e+00 1 -2 0
3085 517 10 -8.4719999999999995e-01 4.6026115192597574e+00 2.9262356769051547e+00 2.0828997926567341e-01 1 2 1
2988 485 9 4.2359999999999998e-01 5.5692180520742482e+00 5.3405560251341182e+00 1.3144029999873329e+01 0 1 0
3586 684 10 -8.4719999999999995e-01 2.9533044524897639e-01 1.9674472744514993e+00 7.5057488694011552e+00 1 4 0
2471 313 9 4.2359999999999998e-01 3.1696721061119386e+00 2.7330437831857877e+00 1.2771105393625387e+01 1 0 -1
2473 313 10 -8.4719999999999995e-01 2.3928403284197124e+00 2.3735179118211134e+00 1.2254118205713853e+01 1 0 -1
2313 260 9 4.2359999999999998e-01 1.1240780860626188e+01 3.5983983673772707e-01 1.2822360568714137e+01 1 -3 -1
2472 313 9 4.2359999999999998e-01 2.4810453754548365e+00 2.6371345281369551e+00 1.1293531472507095e+01 1 0 -1
3770 746 9 4.2359999999999998e-01 1.3587746573299435e+00 6.3903213186229300e+00 1.3233317188843479e+01 1 -1 0
3788 752 9 4.2359999999999998e-01 5.5297778327072917e+00 3.1853410559012167e+00 9.1499604320998813e+00 0 -1 0
3790 752 10 -8.4719999999999995e-01 5.2304866470771119e+00 2.7919235050452742e+00 1.0019240297834832e+01 0 -1 0
1636 34 10 -8.4719999999999995e-01 2.6024917231146194e+00 3.1283880157076931e+00 9.5145314166166255e+00 0 -1 -1
3798 755 9 4.2359999999999998e-01 6.6737439886189085e+00 2.0358773174124387e+00 1.0349392854087760e+01 -1 -1 0
3799 755 10 -8.4719999999999995e-01 7.6070548387342196e+00 1.8880258605839650e+00 1.0676609791508961e+01 -1 -1 0
3585 684 9 4.2359999999999998e-01 8.1824720567454368e-01 1.4464477072000952e+00 8.1803729732307886e+00 1 4 0
1634 34 9 4.2359999999999998e-01 2.1212346420881705e+00 2.6512974446506092e+00 8.7791564496380641e+00 0 -1 -1
1635 34 9 4.2359999999999998e-01 2.3693236132931079e+00 4.1005073333988848e+00 9.4896979177215535e+00 0 -1 -1
3789 752 9 4.2359999999999998e-01 4.2345503101240975e+00 2.8515287843466912e+00 1.0086753673987731e+01 0 -1 0
2058 175 9 4.2359999999999998e-01 1.3736043475746628e+01 1.2574279588155180e+01 7.5486505369513903e+00 2 1 -1
3307 591 10 -8.4719999999999995e-01 1.3621243866745536e+00 5.2525573819586793e+00 1.1879927728625725e+01 2 3 0
3305 591 9 4.2359999999999998e-01 1.0804770436392681e+00 5.2313482198741896e+00 1.0920643223077731e+01 2 3 0
2939 469 9 4.2359999999999998e-01 4.6720059031836154e+00 6.8203937160805959e+00 9.3647527511426709e+00 1 1 0
3708 725 9 4.2359999999999998e-01 4.9570277472137142e-01 5.1466992474597157e+00 8.4752556847711915e+00 0 3 0
3709 725 10 -8.4719999999999995e-01 1.0651281801531944e+00 5.4953615985480049e+00 9.2196946155386037e+00 0 3 0
2338 268 10 -8.4719999999999995e-01 6.0291497806720002e+00 4.0465455250414015e+00 7.2520901890572222e+00 0 -2 -1
2337 268 9 4.2359999999999998e-01 6.8743990179813466e+00 4.2984276475049921e+00 6.7808055656594179e+00 0 -2 -1
2941 469 10 -8.4719999999999995e-01 5.3953215676086179e+00 7.1684435177889014e+00 8.7683665284013479e+00 1 1 0
3707 725 9 4.2359999999999998e-01 1.4442329788410813e+00 6.3839057710304035e+00 8.9612978647382757e+00 0 3 0
1962 143 9 4.2359999999999998e-01 1.3867150874420757e+01 9.4031031517057340e+00 6.7176712988568532e+00 0 -6 -1
3419 629 9 4.2359999999999998e-01 6.7171375551033341e-01 2.2312867090722790e+00 1.3132878846650716e+01 0 0 0
2250 239 9 4.2359999999999998e-01 5.8336888259538293e+00 3.9584544934677499e+00 1.1239675692201800e+01 1 0 -1
2460 309 9 4.2359999999999998e-01 2.6801980224279807e+00 6.7119603074897576e+00 1.1581204009081445e+01 1 1 -1
2461 309 10 -8.4719999999999995e-01 3.6168715790610544e+00 7.0594173074488191e+00 1.1624986482955205e+01 1 1 -1
2459 309 9 4.2359999999999998e-01 4.1546209153707672e+00 6.4906266221439539e+00 1.2247323463302456e+01 1 1 -1
3902 790 9 4.2359999999999998e-01 6.4053925664636999e+00 4.0448737933852602e-01 1.3431542279440812e+01 0 1 0
2940 469 9 4.2359999999999998e-01 6.0711752394350427e+00 7.6610107571423232e+00 9.3166370569346810e+00 1 1 0
2610 359 9 4.2359999999999998e-01 6.6247215973470874e+00 7.4917866145937460e+00 7.5284879634086268e+00 0 5 -1
3468 645 9 4.2359999999999998e-01 1.2783798050316728e+01 3.0204912232882628e+00 1.0328427273378479e+01 0 -2 0
2973 480 9 4.2359999999999998e-01 1.2486738706259139e-01 1.2951269138915734e+01 7.8097003982370667e+00 0 0 0
3259 575 10 -8.4719999999999995e-01 1.1083200867661384e+01 4.4570496205035894e+00 2.0664385394636026e-01 0 -1 1
3257 575 9 4.2359999999999998e-01 1.1290936369796320e+01 5.3066605177483108e+00 6.9141938975501260e-01 0 -1 1
3966 811 9 4.2359999999999998e-01 9.3133348687469777e+00 1.2918674893751616e+00 7.9237045032842932e+00 0 5 0
3239 569 9 4.2359999999999998e-01 1.1127812251648464e+01 5.5297902331745110e+00 6.8133917843697933e+00 0 -2 0
2950 472 10 -8.4719999999999995e-01 1.1311888895173514e+01 7.2443284102929546e+00 7.7196994921145157e+00 0 0 0
2948 472 9 4.2359999999999998e-01 1.0754402798488242e+01 8.0498877756533975e+00 7.9204083469354352e+00 0 0 0
3417 628 9 4.2359999999999998e-01 7.3601849984550638e+00 1.3407621823857699e+01 8.7284015598436540e+00 0 -5 0
2687 385 9 4.2359999999999998e-01 1.2804731960667182e+01 1.1254280798401306e+01 1.0274447184357843e+01 -1 0 -1
2531 333 9 4.2359999999999998e-01 8.4728361380348449e+00 1.0150636023091142e+01 1.1081837232610219e+01 -1 -2 -1
2102 190 9 4.2359999999999998e-01 1.1961790596008198e+01 1.1942310098869342e+00 5.8161733576041330e+00 1 0 -1
3797 755 9 4.2359999999999998e-01 8.2465371558255498e+00 1.9815198844975443e+00 9.9135099305494254e+00 -1 -1 0
1819 95 10 -8.4719999999999995e-01 1.2783429941899604e+01 6.7071975891261397e+00 1.0631670294637603e+01 0 -1 -1
2222 230 9 4.2359999999999998e-01 7.8478763688350428e+00 1.9878998107227747e-01 1.1385022797996829e+01 2 1 -1
2706 391 9 4.2359999999999998e-01 8.1772870850930861e+00 6.0682022921727059e+00 6.3734443875906708e+00 1 0 -1
2695 387 10 -8.4719999999999995e-01 7.4045896015111161e+00 8.0860842245075180e+00 1.0739745913676897e+01 0 2 -1
2694 387 9 4.2359999999999998e-01 8.3445178679223702e+00 7.7497081582829495e+00 1.0797939716063295e+01 0 2 -1
3967 811 10 -8.4719999999999995e-01 8.8528280292215200e+00 5.8109034261435943e-01 7.3919815114702976e+00 0 5 0
2949 472 9 4.2359999999999998e-01 1.1821801605126058e+01 6.9795249818002825e+00 8.5381543606884307e+00 0 0 0
2984 484 9 4.2359999999999998e-01 7.6594901447467629e+00 4.4517962658273325e+00 1.3130967494859362e+01 1 0 0
2115 194 9 4.2359999999999998e-01 1.0989482226756541e+01 6.6153848725760049e+00 1.0623604714367104e+01 1 0 -1
2819 429 9 4.2359999999999998e-01 7.5834874476903726e+00 1.8247517687264976e+00 1.2653022755026795e+01 0 2 -1
2116 194 10 -8.4719999999999995e-01 1.0031005961697222e+01 6.9005575013989144e+00 1.0622691923820296e+01 1 0 -1
3487 651 10 -8.4719999999999995e-01 1.1225311170102833e+01 3.1116127367957778e+00 1.1045486153291186e+01 0 -1 0
2249 239 9 4.2359999999999998e-01 7.1112899538381660e+00 4.9594109955778727e+00 1.1059541840686215e+01 1 0 -1
2780 416 9 4.2359999999999998e-01 8.8413301455185849e+00 4.3358370415042513e+00 9.1096094218203110e+00 0 1 -1
2251 239 10 -8.4719999999999995e-01 6.4200642382377664e+00 4.6249152541972913e+00 1.1700103853026858e+01 1 0 -1
1881 116 9 4.2359999999999998e-01 1.0628048653874066e+01 2.9298567553924273e+00 9.3818612593827986e+00 0 -1 -1
2782 416 10 -8.4719999999999995e-01 8.0491116256213981e+00 4.8842848017762677e+00 9.3771817902005150e+00 0 1 -1
2781 416 9 4.2359999999999998e-01 7.5157816335365952e+00 5.1182393717314145e+00 8.5642707131312648e+00 0 1 -1
1882 116 10 -8.4719999999999995e-01 1.0033174125869085e+01 3.2354213553670617e+00 8.6383858462817003e+00 0 -1 -1
1880 116 9 4.2359999999999998e-01 1.0592572719004849e+01 3.5692047170574295e+00 7.8796614365922109e+00 0 -1 -1
3485 651 9 4.2359999999999998e-01 1.1460974299874245e+01 2.3970084883977427e+00 1.1704123938890687e+01 0 -1 0
3486 651 9 4.2359999999999998e-01 1.0651670150215004e+01 3.7991815075833513e+00 1.1490666131894551e+01 0 -1 0
3332 600 9 4.2359999999999998e-01 9.8773754228305339e+00 7.1191487122903006e+00 1.2443904111018119e+01 0 4 0
2114 194 9 4.2359999999999998e-01 9.4582571894265328e+00 6.1433334890278717e+00 1.0308731523644600e+01 1 0 -1
3937 801 10 -8.4719999999999995e-01 1.3668700155653077e+01 1.1593406178754721e+01 1.5582470507189713e-01 1 -3 1
2789 419 9 4.2359999999999998e-01 2.5333823215908833e+00 4.8030629505783233e-02 9.1511196431796460e+00 0 1 -1
1818 95 9 4.2359999999999998e-01 1.2742630581833902e+01 7.4560156508566982e+00 1.1293189945160197e+01 0 -1 -1
2638 368 10 -8.4719999999999995e-01 9.3072529643499475e+00 9.4278153501037174e+00 8.1339525095416541e+00 0 3 -1
3759 742 9 4.2359999999999998e-01 1.1334051400248910e+01 1.2033942140305788e+01 8.6473765984763169e+00 1 -1 0
1696 54 10 -8.4719999999999995e-01 1.3532921657118926e+01 2.9065463847991659e+00 1.4847204210423584e-01 -1 0 0
1781 83 9 4.2359999999999998e-01 9.1816263415205839e+00 1.5392398635277049e+01 1.2626471036822458e+01 1 3 -1
1890 119 9 4.2359999999999998e-01 1.2458025459818117e+01 1.3969008778637233e+01 6.5683847768405617e+00 -1 2 -1
1891 119 10 -8.4719999999999995e-01 1.2304849335399775e+01 1.4954025465748829e+01 6.6476308551666721e+00 -1 2 -1
2314 260 10 -8.4719999999999995e-01 1.1954784831622286e+01 9.1843932258208372e-01 1.2400264610737725e+01 1 -3 -1
4090 852 10 -8.4719999999999995e-01 8.0240916121050765e-01 1.2896260970124283e+01 2.3456713141508478e-01 -1 -1 1
3418 628 10 -8.4719999999999995e-01 7.1514339711100190e+00 1.2983624270103473e+01 9.6096785431924214e+00 0 -5 0
3427 631 10 -8.4719999999999995e-01 1.5175999206310320e+00 8.1194200225610373e+00 8.3160852500099125e+00 0 1 0
2052 173 9 4.2359999999999998e-01 1.3149553424452410e+01 1.4700182438881710e+01 1.2291268352140182e+01 0 0 -1
3564 677 9 4.2359999999999998e-01 5.3651800283287336e+00 1.4875110316795023e+01 1.3525958556402269e+01 1 -1 0
2883 450 9 4.2359999999999998e-01 2.0360563131742562e+00 1.1576034299721606e+01 7.1645681767492695e+00 1 -3 0
2995 487 10 -8.4719999999999995e-01 9.4859664461887299e+00 1.4300907170237986e+01 1.1040257871718508e+01 -1 1 0
3302 590 9 4.2359999999999998e-01 1.1654824858090336e+01 1.5340611117582766e+01 8.3434601358923999e+00 0 1 0
2050 172 10 -8.4719999999999995e-01 1.0241836333369758e+01 1.2328738287979217e+01 1.3149857866600195e+01 0 -2 -1
2140 202 10 -8.4719999999999995e-01 2.6756030457499689e+00 1.6432719300084852e+01 1.0125173837773906e+01 0 -4 -1
2689 385 10 -8.4719999999999995e-01 1.3591464164985448e+01 1.1280927469433532e+01 1.0891167770328595e+01 -1 0 -1
2611 359 10 -8.4719999999999995e-01 7.4025670024169417e+00 7.7022032664962499e+00 6.9363037688576128e+00 0 5 -1
2048 172 9 4.2359999999999998e-01 1.0474254782954080e+01 1.2612527447987645e+01 1.2219564482681108e+01 0 -2 -1
4088 852 9 4.2359999999999998e-01 7.0238272171063132e-01 1.3888249086581872e+01 3.1173683367338262e-01 -1 -1 1
3565 677 10 -8.4719999999999995e-01 6.2386859147283555e+00 1.4796313008016261e+01 1.3045564453381539e+01 1 -1 0
3539 669 9 4.2359999999999998e-01 3.2634255220958810e+00 1.1142444071352408e+01 1.2346305381437528e+01 1 0 0
2908 458 10 -8.4719999999999995e-01 1.6235235713419065e+00 1.5537009975677043e+01 6.6006504170475271e+00 1 -4 0
2745 404 9 4.2359999999999998e-01 3.1339351786284149e+00 1.4952163351350977e+01 6.5011257172553858e+00 0 -1 -1
2260 242 10 -8.4719999999999995e-01 4.9701683451482701e+00 1.0046391615146311e+01 6.8922554968807557e+00 1 -1 -1
2258 242 9 4.2359999999999998e-01 4.3140869757629279e+00 1.0650289452646664e+01 6.4396356533357881e+00 1 -1 -1
2259 242 9 4.2359999999999998e-01 4.5673001639212067e+00 9.1374916600763161e+00 6.9999502309147585e+00 1 -1 -1
2618 362 9 4.2359999999999998e-01 3.7184162144886046e+00 1.0390869144760852e-01 1.1082987963064216e+01 0 -1 -1
2862 443 9 4.2359999999999998e-01 6.6145635898388537e+00 1.0386907417630397e+01 6.6463020171816121e+00 1 0 0
1839 102 9 4.2359999999999998e-01 5.3315175981979408e+00 1.0310901965280815e+01 8.5619360447861759e+00 1 -2 -1