4121
Atoms. Timestep: 0
1 1.96993e-05 1.2125 3.40043
1 0.699998 0.000117431 3.39987
1 2.09995 9.43176e-05 3.39946
1 2.79989 1.21247 3.39957
1 4.19997 1.21242 3.39938
1 4.89998 9.30829e-05 3.39993
1 6.29995 33.948 3.40007
1 6.99997 1.21248 3.40008
1 8.40002 1.2124 3.40008
1 9.10006 0.000103174 3.40007
1 10.5 33.948 3.40004
1 11.2 1.21248 3.40006
1 12.6 1.21239 3.3999
1 13.3001 0.000115743 3.3994
1 14.7 33.948 3.40004
1 15.4 1.21247 3.4
1 16.8 1.21234 3.3998
1 17.5 0.000109604 3.40019
1 18.9 33.948 3.40003
1 19.6 1.2125 3.39972
1 21 1.21242 3.39959
1 21.7 0.000223306 3.39863
1 23.1 3.11337e-05 3.39963
1 23.8 1.21255 3.39997
1 25.2 1.21241 3.39998
1 25.9001 0.000113988 3.39994
1 27.3 33.948 3.39995
1 28 1.21248 3.39976
1 29.4 1.21239 3.40014
1 30.1001 0.000150084 3.40062
1 31.5 33.948 3.40047
1 32.2 1.2125 3.40012
1 33.6 1.21238 3.39993
1 34.3 0.000147542 3.39956
1 35.7 2.61482e-07 3.39995
1 36.4 1.21253 3.40026
1 37.8 1.21239 3.40021
1 38.5 0.000143678 3.40007
1 39.8999 8.19736e-06 3.39989
1 40.6 1.21252 3.40012
1 42 1.2124 3.40007
1 42.7 0.000197776 3.39964
1 44.1 33.948 3.39991
1 44.8 1.21252 3.40011
1 46.2001 1.2124 3.4002
1 46.9001 0.000105025 3.4002
1 48.3 33.948 3.40012
1 49 1.21252 3.40003
1 50.3999 1.21235 3.39976
1 51.1 1.8633e-05 3.40017
1 52.5001 33.9479 3.40009
1 53.2001 1.2125 3.39987
1 54.6 1.21236 3.39995
1 55.3 0.000101756 3.39991
1 56.7 33.948 3.39999
1 57.4 1.21251 3.40011
1 58.8 1.21237 3.40047
1 59.5 0.000190562 3.3997
1 60.8999 3.92986e-05 3.40018
1 61.6 1.21255 3.40035
1 62.9999 1.21241 3.3999
1 63.7 0.000178117 3.40038
1 65.1 6.57676e-05 3.4006
1 65.8 1.2125 3.4005
1 67.2 1.2124 3.40029
1 67.9 0.000161817 3.39946
1 69.3 3.41396e-05 3.39921
1 70 1.21242 3.3996
1 71.4 1.21239 3.40003
1 72.1 0.000105253 3.40003
1 73.5 1.79996e-05 3.40003
1 74.2 1.21251 3.40037
1 75.6 1.21241 3.40047
1 76.3 0.000106183 3.40017
1 77.7 33.9479 3.40068
1 78.4001 1.21248 3.401
1 79.8 1.2124 3.40009
1 80.5 0.000100392 3.39995
1 81.8999 2.18191e-05 3.39975
1 82.5999 1.21255 3.39953
1 83.9999 3.63723 3.39957
1 0.699905 2.42495 3.39989
1 2.09996 2.42477 3.40103
1 2.80002 3.6373 3.40111
1 4.19994 3.63727 3.40017
1 4.89993 2.42496 3.39997
1 6.29997 2.42486 3.40009
1 6.99999 3.63738 3.4001
1 8.40001 3.63727 3.40005
1 9.10002 2.42495 3.40012
1 10.5 2.42481 3.40025
1 11.2 3.63737 3.40026
1 12.6 3.63723 3.40021
1 13.3 2.42491 3.40007
1 14.7 2.42479 3.40008
1 15.4 3.63735 3.40004
1 16.8 3.63727 3.39963
1 17.5 2.42489 3.39874
1 18.9001 2.42483 3.39945
1 19.6 3.63736 3.39994
1 21 3.63726 3.40006
1 21.7 2.42497 3.39996
1 23.1 2.42487 3.39998
1 23.8 3.6374 3.40019
1 25.2 3.63726 3.40005
1 25.9 2.425 3.39994
1 27.3 2.42483 3.39945
1 28 3.63741 3.39937
1 29.4 3.63723 3.39979
1 30.1 2.42495 3.40003
1 31.5 2.42481 3.40005
1 32.2 3.63734 3.4
1 33.6 3.63724 3.39997
1 34.3 2.42497 3.39996
1 35.7 2.42482 3.40004
1 36.4 3.63734 3.39968
1 37.8 3.63718 3.39879
1 38.5 2.42492 3.39994
1 39.9 2.42483 3.4005
1 40.6 3.6374 3.40011
1 42 3.63725 3.40001
1 42.7 2.42496 3.40006
1 44.1 2.42483 3.40009
1 44.8 3.63738 3.40031
1 46.2 3.63727 3.40013
1 46.9 2.42498 3.40002
1 48.3 2.4248 3.39991
1 49 3.63734 3.40017
1 50.3999 3.6373 3.40098
1 51.0999 2.42495 3.40025
1 52.5001 2.42483 3.39989
1 53.2001 3.63737 3.40004
1 54.6 3.63725 3.39986
1 55.3 2.42494 3.39986
1 56.7 2.42483 3.40032
1 57.4 3.63737 3.40018
1 58.7999 3.63719 3.39935
1 59.5 2.42497 3.40049
1 60.9 2.42483 3.40021
1 61.6 3.63737 3.40014
1 63 3.63728 3.3998
1 63.6999 2.425 3.39881
1 65.1 2.42483 3.3993
1 65.8 3.63733 3.3995
1 67.2 3.63724 3.40006
1 67.9 2.42495 3.39992
1 69.2999 2.42487 3.39905
1 70 3.63744 3.39944
1 71.4 3.63727 3.39996
1 72.1 2.42497 3.40001
1 73.5 2.42485 3.40009
1 74.2 3.63735 3.40032
1 75.6 3.63723 3.40038
1 76.3 2.42495 3.40014
1 77.7 2.42494 3.40007
1 78.4 3.63732 3.39915
1 79.8 3.63724 3.40009
1 80.5 2.42493 3.40002
1 81.9 2.42491 3.39993
1 82.6 3.63736 3.3999
1 84 6.06215 3.39961
1 0.69995 4.84968 3.3996
1 2.09996 4.84949 3.40219
1 2.80008 6.0623 3.40163
1 4.20001 6.06214 3.4002
1 4.89995 4.84977 3.40005
1 6.29997 4.84968 3.40006
1 7 6.06222 3.40005
1 8.40002 6.06213 3.4
1 9.10001 4.84979 3.39994
1 10.5 4.84969 3.40011
1 11.2 6.06228 3.40035
1 12.6 6.0622 3.40062
1 13.3 4.8498 3.40046
1 14.7 4.84971 3.40006
1 15.4 6.06227 3.39999
1 16.8 6.06215 3.40003
1 17.5 4.8498 3.39996
1 18.9 4.84964 3.40001
1 19.6 6.06221 3.40029
1 21 6.06214 3.39992
1 21.7 4.8498 3.39998
1 23.1 4.84968 3.40007
1 23.8 6.06225 3.40012
1 25.2 6.06214 3.40003
1 25.8999 4.84981 3.39986
1 27.3 4.84966 3.3991
1 28 6.06232 3.39931
1 29.3998 6.06215 3.39827
1 30.0999 4.84971 3.39924
1 31.5 4.84961 3.39989
1 32.2 6.06215 3.40071
1 33.6 6.06208 3.40016
1 34.3 4.84981 3.39984
1 35.7 4.84966 3.3999
1 36.4 6.0622 3.40029
1 37.8 6.06214 3.40023
1 38.5001 4.84982 3.40023
1 39.9 4.84964 3.40001
1 40.5999 6.06212 3.39968
1 42 6.0619 3.40164
1 42.7 4.84975 3.40039
1 44.0999 4.8497 3.4006
1 44.8 6.06235 3.4003
1 46.2 6.06218 3.40025
1 46.9 4.84987 3.40026
1 48.2999 4.84969 3.401
1 49 6.06247 3.4017
1 50.4001 6.0622 3.40063
1 51.1 4.84987 3.40056
1 52.5 4.84968 3.40008
1 53.2 6.06224 3.39986
1 54.6 6.06211 3.39995
1 55.3 4.84977 3.4002
1 56.7 4.84962 3.4003
1 57.4 6.06224 3.40017
1 58.8 6.06219 3.39954
1 59.5 4.84987 3.39777
1 60.9001 4.84971 3.39943
1 61.6 6.06225 3.40049
1 63 6.0621 3.40072
1 63.6999 4.84978 3.3998
1 65.1 4.8497 3.39894
1 65.8 6.06231 3.40031
1 67.2001 6.06221 3.40152
1 67.9001 4.84976 3.40056
1 69.3 4.84967 3.39981
1 70 6.06222 3.39957
1 71.4 6.06211 3.39986
1 72.1 4.84978 3.40006
1 73.5 4.84967 3.40002
1 74.2 6.06217 3.39973
1 75.6 6.06211 3.40041
1 76.3 4.84979 3.39983
1 77.6999 4.84976 3.39833
1 78.4 6.06228 3.3997
1 79.8 6.06218 3.40012
1 80.5 4.84981 3.40044
1 81.9 4.84969 3.40009
1 82.6 6.06221 3.40003
1 83.9999 8.48699 3.40026
1 0.699926 7.27462 3.40049
1 2.09995 7.2746 3.4004
1 2.79993 8.48705 3.3998
1 4.19994 8.48695 3.39995
1 4.89997 7.27463 3.40002
1 6.29998 7.27453 3.4002
1 7 8.48704 3.40002
1 8.39998 8.48692 3.39973
1 9.10001 7.27463 3.39994
1 10.5 7.27454 3.40002
1 11.2 8.48705 3.39999
1 12.6 8.48696 3.39997
1 13.3 7.27465 3.4
1 14.7 7.27453 3.39992
1 15.4 8.4871 3.40013
1 16.8001 8.487 3.40053
1 17.5 7.27467 3.40037
1 18.9 7.27457 3.40091
1 19.6 8.48712 3.40033
1 21 8.48693 3.39989
1 21.7 7.27466 3.3998
1 23.1 7.27455 3.39998
1 23.8 8.48706 3.39967
1 25.2 8.48694 3.39981
1 25.9 7.27466 3.39994
1 27.3 7.27451 3.39999
1 28.0001 8.48699 3.40048
1 29.4 8.48693 3.39958
1 30.0999 7.27477 3.39939
1 31.4998 7.27455 3.40158
1 32.2 8.48724 3.40087
1 33.6 8.48699 3.40018
1 34.3 7.27467 3.4001
1 35.7 7.27453 3.40048
1 36.4 8.48708 3.40013
1 37.8 8.48696 3.40023
1 38.5 7.27466 3.39999
1 39.8998 7.27452 3.39923
1 40.5999 8.48715 3.39984
1 42 8.48702 3.39979
1 42.7001 7.27469 3.40087
1 44.1001 7.27441 3.39984
1 44.8001 8.48704 3.39929
1 46.2001 8.48677 3.39762
1 46.9 7.27461 3.39979
1 48.3 7.27463 3.4001
1 49 8.48712 3.40003
1 50.4001 8.487 3.39984
1 51.1001 7.27467 3.39983
1 52.5 7.27451 3.40002
1 53.2001 8.48708 3.40003
1 54.6 8.48695 3.39985
1 55.3 7.27468 3.40003
1 56.7 7.27454 3.40009
1 57.4 8.48709 3.39992
1 58.8 8.48695 3.39987
1 59.5 7.27467 3.39975
1 60.9 7.27452 3.39971
1 61.6 8.48706 3.4002
1 63 8.48695 3.40027
1 63.7 7.27465 3.40011
1 65.1 7.27453 3.39982
1 65.8 8.4871 3.39952
1 67.2 8.48696 3.39999
1 67.9 7.27469 3.40022
1 69.2999 7.27454 3.39907
1 69.9999 8.48721 3.39909
1 71.4 8.487 3.40037
1 72.1 7.27463 3.39978
1 73.5 7.27452 3.39873
1 74.2 8.4871 3.39967
1 75.6 8.48694 3.40049
1 76.3 7.27466 3.40036
1 77.7 7.27457 3.40009
1 78.4 8.48706 3.40019
1 79.8 8.48696 3.39998
1 80.5 7.27464 3.40002
1 81.8999 7.27456 3.4001
1 82.6 8.48706 3.39984
1 84 10.9118 3.40019
1 0.699899 9.69949 3.39976
1 2.09994 9.69934 3.39896
1 2.79998 10.912 3.39929
1 4.19993 10.9119 3.39991
1 4.89994 9.69951 3.39994
1 6.29998 9.69939 3.39997
1 6.99998 10.9119 3.4
1 8.40001 10.9118 3.39997
1 9.1 9.69951 3.39971
1 10.5 9.69941 3.39995
1 11.2 10.9119 3.39994
1 12.6 10.9119 3.39993
1 13.3 9.69955 3.39992
1 14.7 9.69945 3.39989
1 15.4 10.912 3.3999
1 16.8 10.9119 3.39991
1 17.5 9.69956 3.39996
1 18.9 9.69943 3.40008
1 19.6 10.912 3.40031
1 21 10.9119 3.40006
1 21.7001 9.69957 3.40009
1 23.1 9.69944 3.40004
1 23.8 10.912 3.40002
1 25.2 10.9119 3.40025
1 25.8999 9.69965 3.40083
1 27.3 9.69963 3.40158
1 28 10.9121 3.4001
1 29.4 10.9119 3.39989
1 30.1001 9.69958 3.3996
1 31.5 9.69949 3.39992
1 32.2 10.912 3.39992
1 33.6 10.9119 3.39987
1 34.3 9.69956 3.39999
1 35.6999 9.69937 3.40052
1 36.4 10.9121 3.40125
1 37.8001 10.9119 3.40025
1 38.5 9.69956 3.4001
1 39.9 9.69944 3.40014
1 40.6 10.912 3.39999
1 41.9999 10.9118 3.40005
1 42.6999 9.69947 3.40062
1 44.1002 9.69932 3.40022
1 44.8002 10.912 3.39973
1 46.2001 10.9119 3.40016
1 46.9002 9.69962 3.39865
1 48.3001 9.69939 3.40001
1 49.0001 10.9119 3.4009
1 50.4 10.9118 3.40001
1 51.1 9.69956 3.39989
1 52.5001 9.69939 3.39982
1 53.2002 10.9119 3.39975
1 54.6001 10.9118 3.40018
1 55.3 9.69955 3.39969
1 56.7 9.69943 3.39989
1 57.4 10.912 3.40001
1 58.8 10.9118 3.40021
1 59.5 9.69955 3.40007
1 60.9 9.69942 3.40007
1 61.6 10.912 3.40019
1 63 10.9118 3.40023
1 63.7 9.69957 3.40002
1 65.1 9.69947 3.39976
1 65.8 10.9119 3.40027
1 67.2 10.9117 3.3997
1 67.9 9.69951 3.39996
1 69.3 9.69946 3.40004
1 70 10.912 3.40013
1 71.4 10.9119 3.40006
1 72.1 9.69959 3.40048
1 73.5 9.69942 3.40031
1 74.2 10.912 3.40035
1 75.5999 10.9118 3.39959
1 76.3 9.69956 3.40085
1 77.7 9.69946 3.40044
1 78.4 10.912 3.39995
1 79.8 10.9119 3.40006
1 80.4999 9.69952 3.39978
1 81.9 9.6994 3.39929
1 82.6 10.912 3.4005
1 83.9999 13.3367 3.39996
1 0.699955 12.1244 3.40001
1 2.09995 12.1243 3.40005
1 2.79996 13.3369 3.40034
1 4.19992 13.3368 3.40004
1 4.89992 12.1245 3.40004
1 6.29995 12.1243 3.40006
1 6.99998 13.3369 3.40006
1 8.39999 13.3368 3.40003
1 9.10001 12.1244 3.4
1 10.5 12.1243 3.39996
1 11.2 13.3369 3.39998
1 12.6001 13.3368 3.39998
1 13.3 12.1244 3.39993
1 14.7 12.1243 3.39999
1 15.4 13.3369 3.40055
1 16.8 13.3368 3.40235
1 17.5 12.1244 3.40072
1 18.9 12.1243 3.40079
1 19.6 13.3369 3.40021
1 21 13.3367 3.4
1 21.7 12.1244 3.39998
1 23.1 12.1243 3.40004
1 23.8 13.3368 3.40024
1 25.2 13.3367 3.40001
1 25.9 12.1244 3.40008
1 27.3 12.1243 3.4
1 28 13.3369 3.39992
1 29.4 13.3367 3.40006
1 30.1 12.1244 3.4003
1 31.5 12.1243 3.40029
1 32.2 13.3369 3.40012
1 33.6 13.3367 3.40032
1 34.3 12.1244 3.39994
1 35.7 12.1244 3.40013
1 36.4 13.3369 3.4
1 37.7999 13.3368 3.39895
1 38.5 12.1244 3.39927
1 39.9 12.1243 3.39993
1 40.6 13.3369 3.40007
1 41.9999 13.3367 3.39965
1 42.6999 12.1245 3.39948
1 44.1001 12.1244 3.39932
1 44.8 13.3369 3.39985
1 46.2 13.3367 3.40001
1 46.9 12.1245 3.40034
1 48.3 12.1243 3.40098
1 49 13.3369 3.40023
1 50.4 13.3368 3.40041
1 51.0999 12.1244 3.40005
1 52.5001 12.1245 3.3991
1 53.2 13.3369 3.3999
1 54.6 13.3367 3.40001
1 55.3 12.1244 3.39999
1 56.7 12.1243 3.39983
1 57.4 13.3369 3.39999
1 58.8 13.3367 3.40025
1 59.5 12.1244 3.40084
1 60.9 12.1243 3.40039
1 61.6 13.3368 3.40011
1 63 13.3367 3.39995
1 63.7 12.1244 3.40015
1 65.1 12.1244 3.40032
1 65.8 13.3369 3.40007
1 67.2 13.3369 3.39971
1 67.9002 12.1245 3.39942
1 69.3001 12.1243 3.39993
1 70 13.3369 3.39988
1 71.4 13.3368 3.39996
1 72.1 12.1244 3.40004
1 73.5 12.1243 3.40018
1 74.2 13.3369 3.40021
1 75.5999 13.3368 3.39937
1 76.2998 12.1243 3.39634
1 77.7002 12.1243 3.39794
1 78.4 13.3369 3.3996
1 79.8 13.3368 3.39986
1 80.5 12.1244 3.39993
1 81.8999 12.1243 3.40019
1 82.6 13.3368 3.39971
1 84 15.7615 3.39918
1 0.699963 14.5493 3.39985
1 2.09996 14.5492 3.40002
1 2.79986 15.7617 3.3997
1 4.19995 15.7616 3.39985
1 4.89994 14.5493 3.40007
1 6.29996 14.5492 3.40005
1 7.00001 15.7618 3.40016
1 8.39999 15.7617 3.40001
1 9.09999 14.5493 3.4
1 10.5 14.5492 3.40002
1 11.2001 15.7618 3.40004
1 12.6 15.7617 3.39996
1 13.3 14.5493 3.39993
1 14.7001 14.5492 3.39988
1 15.4001 15.7617 3.39964
1 16.8 15.7617 3.39973
1 17.5001 14.5494 3.40063
1 18.9 14.5491 3.40032
1 19.6 15.7617 3.4006
1 21 15.7616 3.39989
1 21.7 14.5493 3.39976
1 23.1 14.5491 3.39953
1 23.8 15.7618 3.39876
1 25.2 15.7616 3.3996
1 25.9 14.5493 3.39956
1 27.3 14.5492 3.39978
1 28 15.7617 3.40012
1 29.4 15.7616 3.40041
1 30.1 14.5493 3.40006
1 31.5 14.5491 3.40031
1 32.2001 15.7617 3.4009
1 33.6 15.7616 3.4002
1 34.3 14.5493 3.40023
1 35.6999 14.5492 3.40029
1 36.3999 15.7618 3.39981
1 37.7998 15.7616 3.40194
1 38.5 14.5492 3.40053
1 39.9 14.5491 3.39999
1 40.6001 15.7617 3.39908
1 41.9999 15.7615 3.39934
1 42.6999 14.5493 3.3994
1 44.1 14.5492 3.39979
1 44.8 15.7617 3.39999
1 46.2 15.7616 3.39967
1 46.9 14.5493 3.39997
1 48.3 14.5491 3.3999
1 49 15.7616 3.39951
1 50.4001 15.7615 3.40024
1 51.1 14.5493 3.40026
1 52.5 14.5491 3.40011
1 53.2 15.7617 3.40008
1 54.6 15.7616 3.40042
1 55.3 14.5492 3.40003
1 56.7 14.5491 3.39989
1 57.4 15.7617 3.39994
1 58.7999 15.7616 3.39939
1 59.4999 14.5492 3.40024
1 60.9001 14.5491 3.40056
1 61.6 15.7617 3.4
1 63 15.7616 3.40024
1 63.7 14.5493 3.40001
1 65.1 14.5492 3.40022
1 65.8001 15.7617 3.40058
1 67.2 15.7616 3.40003
1 67.9 14.5493 3.39984
1 69.3 14.5491 3.39979
1 70 15.7617 3.39963
1 71.4 15.7616 3.40023
1 72.1 14.5493 3.40021
1 73.5 14.5492 3.40026
1 74.2 15.7617 3.40031
1 75.6 15.7616 3.40052
1 76.3001 14.5493 3.40056
1 77.7 14.5492 3.40015
1 78.3999 15.7617 3.40027
1 79.7999 15.7616 3.40084
1 80.4999 14.5492 3.40035
1 81.9 14.5492 3.39988
1 82.6 15.7617 3.40004
1 84 18.1865 3.4
1 0.70007 16.9742 3.399
1 2.09999 16.974 3.39995
1 2.79997 18.1865 3.40005
1 4.19994 18.1865 3.40014
1 4.89991 16.9741 3.40078
1 6.30006 16.974 3.40106
1 7.00002 18.1866 3.40013
1 8.4 18.1865 3.39986
1 9.09999 16.9742 3.40007
1 10.5 16.9741 3.40007
1 11.2 18.1866 3.4001
1 12.6 18.1865 3.40029
1 13.3 16.9742 3.40006
1 14.7001 16.974 3.40002
1 15.4002 18.1866 3.40059
1 16.8001 18.1865 3.40009
1 17.5 16.9742 3.39995
1 18.9 16.9741 3.40028
1 19.6 18.1865 3.39964
1 21 18.1864 3.40006
1 21.7 16.9742 3.40006
1 23.1 16.9741 3.39979
1 23.8 18.1866 3.39963
1 25.2 18.1865 3.39962
1 25.9 16.9742 3.39999
1 27.3 16.974 3.39996
1 28 18.1865 3.39969
1 29.4 18.1864 3.39993
1 30.1 16.9742 3.39983
1 31.5 16.9741 3.39999
1 32.2001 18.1866 3.39985
1 33.6 18.1864 3.39983
1 34.3 16.9742 3.39994
1 35.7 16.974 3.39957
1 36.4001 18.1866 3.39927
1 37.8 18.1865 3.39999
1 38.5 16.9744 3.4011
1 39.9001 16.9742 3.39932
1 40.6 18.1866 3.39991
1 42 18.1865 3.40014
1 42.7 16.9744 3.40013
1 44.1001 16.9741 3.40006
1 44.8001 18.1866 3.39917
1 46.2 18.1864 3.39992
1 46.9 16.9742 3.39955
1 48.2999 16.9741 3.39966
1 49 18.1867 3.40045
1 50.4001 18.1865 3.40033
1 51.1001 16.9741 3.40031
1 52.5 16.974 3.39998
1 53.2001 18.1865 3.39982
1 54.6 18.1865 3.40013
1 55.3 16.9742 3.40064
1 56.7 16.9741 3.40009
1 57.4 18.1866 3.40003
1 58.7999 18.1865 3.40053
1 59.4999 16.9743 3.39885
1 60.9 16.9741 3.39959
1 61.6 18.1866 3.40018
1 62.9999 18.1865 3.40015
1 63.6999 16.9743 3.40137
1 65.1001 16.9742 3.40179
1 65.8001 18.1866 3.40042
1 67.2 18.1865 3.40019
1 67.9 16.9741 3.4004
1 69.3 16.9741 3.40014
1 69.9999 18.1866 3.39995
1 71.3999 18.1864 3.39847
1 72.1 16.9741 3.3996
1 73.4999 16.974 3.40017
1 74.2 18.1866 3.40022
1 75.6 18.1865 3.40027
1 76.3001 16.9742 3.40024
1 77.7 16.974 3.39997
1 78.4 18.1866 3.39987
1 79.7999 18.1865 3.39962
1 80.4999 16.9743 3.40081
1 81.9 16.9741 3.40046
1 82.6 18.1866 3.39996
1 3.50419e-06 20.6114 3.40055
1 0.700061 19.399 3.4007
1 2.10002 19.3989 3.39998
1 2.80001 20.6114 3.39999
1 4.2 20.6113 3.40002
1 4.89998 19.399 3.39989
1 6.29999 19.3989 3.39984
1 6.99999 20.6114 3.40019
1 8.4 20.6114 3.39997
1 9.10001 19.399 3.39971
1 10.5 19.3989 3.3997
1 11.2001 20.6115 3.39948
1 12.6 20.6113 3.39998
1 13.3 19.3991 3.4003
1 14.7001 19.399 3.4002
1 15.4001 20.6114 3.39918
1 16.7999 20.6113 3.39967
1 17.5 19.399 3.39987
1 18.8999 19.399 3.39895
1 19.6 20.6115 3.39969
1 20.9999 20.6114 3.40004
1 21.7 19.3991 3.40007
1 23.1 19.3989 3.39972
1 23.7999 20.6114 3.3983
1 25.2001 20.6113 3.39875
1 25.9 19.399 3.39936
1 27.3 19.3989 3.39944
1 28 20.6115 3.40006
1 29.4 20.6113 3.40004
1 30.1 19.399 3.39998
1 31.5 19.3989 3.39999
1 32.2 20.6114 3.40038
1 33.5999 20.6113 3.39928
1 34.3 19.3989 3.39882
1 35.7 19.3989 3.39952
1 36.4 20.6114 3.40078
1 37.8001 20.6112 3.40074
1 38.5 19.399 3.39994
1 39.8999 19.3988 3.40008
1 40.5998 20.6112 3.40193
1 42.0001 20.6112 3.40113
1 42.7 19.399 3.39973
1 44.1001 19.399 3.39853
1 44.8 20.6114 3.39882
1 46.2 20.6113 3.39968
1 46.9 19.399 3.40019
1 48.3 19.3989 3.40013
1 49 20.6115 3.39996
1 50.3999 20.6113 3.39982
1 51.1 19.3989 3.39907
1 52.5001 19.3988 3.39874
1 53.2002 20.6114 3.39936
1 54.6001 20.6113 3.40003
1 55.3 19.3991 3.40011
1 56.7 19.3989 3.40006
1 57.4 20.6115 3.40002
1 58.8 20.6113 3.40013
1 59.5 19.3991 3.40044
1 60.9 19.3989 3.40004
1 61.6 20.6114 3.39937
1 62.9998 20.6113 3.39898
1 63.6999 19.3989 3.39927
1 65.1001 19.3988 3.40025
1 65.8002 20.6115 3.40087
1 67.2001 20.6113 3.39978
1 67.9 19.399 3.39993
1 69.3 19.3989 3.40011
1 70 20.6114 3.40001
1 71.3999 20.6114 3.40023
1 72.1 19.3992 3.39873
1 73.5 19.399 3.39975
1 74.2 20.6115 3.40008
1 75.6 20.6113 3.40004
1 76.3 19.399 3.40004
1 77.7 19.3989 3.39998
1 78.4 20.6114 3.39991
1 79.8 20.6113 3.3997
1 80.5 19.399 3.39952
1 81.8999 19.3989 3.39928
1 82.6 20.6115 3.3993
1 83.9999 23.0362 3.40003
1 0.699967 21.8239 3.40008
1 2.09996 21.8237 3.40009
1 2.79994 23.0363 3.40033
1 4.20001 23.0362 3.40076
1 4.90004 21.8238 3.40047
1 6.29998 21.8238 3.40031
1 7.00002 23.0363 3.40004
1 8.40001 23.0362 3.40016
1 9.1 21.8239 3.40001
1 10.5 21.8238 3.39979
1 11.1999 23.0364 3.39983
1 12.6 23.0363 3.39937
1 13.3 21.8239 3.39937
1 14.7 21.8238 3.39857
1 15.4 23.0364 3.40046
1 16.8 23.0363 3.40025
1 17.5 21.8239 3.39943
1 18.9 21.8237 3.40025
1 19.5999 23.0364 3.40106
1 21 23.0362 3.40047
1 21.7 21.8239 3.40013
1 23.0999 21.8237 3.39967
1 23.8 23.0363 3.40001
1 25.2 23.0361 3.40007
1 25.9 21.8238 3.39988
1 27.3 21.8237 3.39996
1 28 23.0363 3.40003
1 29.4 23.0362 3.39998
1 30.1 21.8239 3.40002
1 31.5 21.8237 3.40008
1 32.2 23.0363 3.39994
1 33.6 23.0362 3.40008
1 34.3 21.8239 3.39994
1 35.7 21.8237 3.40032
1 36.4 23.0363 3.40004
1 37.8 23.0362 3.39988
1 38.4999 21.8239 3.40039
1 39.8997 21.8238 3.40194
1 40.5999 23.0365 3.40102
1 42 23.0363 3.4001
1 42.7001 21.8238 3.40023
1 44.0999 21.8238 3.39922
1 44.7999 23.0363 3.39952
1 46.2 23.0361 3.39951
1 46.9 21.8239 3.39995
1 48.3 21.8238 3.40002
1 49 23.0364 3.40005
1 50.4 23.0362 3.40057
1 51.0999 21.8238 3.40146
1 52.5001 21.8238 3.40038
1 53.2001 23.0364 3.39994
1 54.6 23.0361 3.39978
1 55.3 21.8239 3.40012
1 56.7 21.8238 3.40003
1 57.4 23.0363 3.40008
1 58.8 23.0362 3.39999
1 59.5 21.8239 3.40014
1 60.9 21.8238 3.39976
1 61.6 23.0364 3.40023
1 63 23.0363 3.40009
1 63.6999 21.824 3.39994
1 65.1001 21.824 3.4008
1 65.8 23.0364 3.40007
1 67.2 23.0362 3.39967
1 67.9 21.8238 3.39938
1 69.3001 21.8237 3.39937
1 70 23.0363 3.39979
1 71.4 23.0362 3.39976
1 72.1 21.8239 3.40052
1 73.5 21.8238 3.40004
1 74.1999 23.0362 3.39916
1 75.6 23.0362 3.39972
1 76.3 21.8238 3.40006
1 77.7 21.8238 3.40004
1 78.4 23.0363 3.40005
1 79.8 23.0362 3.40008
1 80.5 21.8239 3.39994
1 81.9 21.8238 3.39998
1 82.5999 23.0363 3.40009
1 83.9999 25.461 3.39983
1 0.69996 24.2487 3.39976
1 2.09993 24.2486 3.39959
1 2.79994 25.4612 3.39906
1 4.19992 25.4611 3.39932
1 4.89995 24.2486 3.39908
1 6.3001 24.2485 3.39909
1 7.00005 25.4611 3.3995
1 8.39999 25.461 3.4001
1 9.10001 24.2487 3.40015
1 10.5 24.2486 3.40007
1 11.2 25.4612 3.40004
1 12.6 25.4611 3.40007
1 13.3 24.2488 3.39998
1 14.7 24.2487 3.4002
1 15.4 25.4612 3.40016
1 16.8 25.461 3.40006
1 17.5 24.2488 3.40011
1 18.8999 24.2486 3.40062
1 19.6 25.4611 3.4008
1 21 25.461 3.40015
1 21.7 24.2487 3.40004
1 23.1 24.2486 3.40001
1 23.8 25.4612 3.40006
1 25.2 25.461 3.40007
1 25.9 24.2487 3.4001
1 27.3 24.2486 3.40008
1 28 25.4612 3.40004
1 29.4 25.4611 3.39998
1 30.1 24.2488 3.39996
1 31.5 24.2486 3.39994
1 32.2 25.4612 3.39997
1 33.6 25.4611 3.39997
1 34.3 24.2488 3.40001
1 35.7 24.2486 3.39997
1 36.4 25.4612 3.39997
1 37.8 25.4611 3.39978
1 38.5 24.2488 3.39949
1 39.9 24.2487 3.39992
1 40.6 25.4612 3.40005
1 42 25.461 3.4002
1 42.7 24.2488 3.3997
1 44.1 24.2486 3.39941
1 44.8001 25.4612 3.39863
1 46.2 25.4611 3.40035
1 46.9001 24.2487 3.40025
1 48.3 24.2486 3.40031
1 49 25.4612 3.40014
1 50.4 25.4611 3.40002
1 51.1001 24.2488 3.40017
1 52.5 24.2486 3.40039
1 53.2 25.4613 3.39982
1 54.6 25.4613 3.39787
1 55.3002 24.2487 3.39848
1 56.7001 24.2486 3.40031
1 57.4001 25.4611 3.40125
1 58.8001 25.461 3.40023
1 59.5 24.2488 3.40004
1 60.9 24.2486 3.40012
1 61.6 25.4612 3.40004
1 63 25.461 3.39989
1 63.7 24.2488 3.40003
1 65.1 24.2486 3.39991
1 65.8 25.4612 3.40003
1 67.2001 25.4611 3.40019
1 67.9001 24.2487 3.39959
1 69.3 24.2486 3.40003
1 70 25.4612 3.40015
1 71.4 25.4611 3.39991
1 72.1 24.2488 3.39975
1 73.4999 24.2487 3.39944
1 74.1999 25.4612 3.39983
1 75.6 25.4611 3.40018
1 76.3 24.2488 3.39996
1 77.7 24.2486 3.40002
1 78.4 25.4612 3.40015
1 79.8 25.4611 3.39979
1 80.5 24.2487 3.39974
1 81.9 24.2486 3.39957
1 82.6 25.4612 3.39975
1 83.9999 27.886 3.40078
1 0.700015 26.6736 3.40179
1 2.1 26.6735 3.40029
1 2.79996 27.886 3.39995
1 4.19997 27.8859 3.39999
1 4.89998 26.6736 3.39991
1 6.30003 26.6735 3.39991
1 7.00004 27.886 3.40006
1 8.40001 27.886 3.40026
1 9.09997 26.6737 3.40107
1 10.5 26.6735 3.39998
1 11.2 27.8861 3.39922
1 12.6 27.886 3.39983
1 13.3 26.6736 3.40005
1 14.7 26.6735 3.40009
1 15.4 27.886 3.39994
1 16.7999 27.8859 3.40049
1 17.4999 26.6735 3.40055
1 18.9001 26.6733 3.40015
1 19.6002 27.8861 3.39983
1 21 27.886 3.39999
1 21.6999 26.6736 3.40002
1 23.1 26.6735 3.40005
1 23.8 27.8861 3.40002
1 25.2 27.886 3.40005
1 25.9 26.6737 3.40006
1 27.3 26.6735 3.40004
1 28 27.8861 3.4
1 29.4 27.886 3.39999
1 30.1 26.6737 3.39996
1 31.5001 26.6735 3.40001
1 32.2001 27.8861 3.4001
1 33.6 27.886 3.39996
1 34.3 26.6737 3.4
1 35.7 26.6735 3.40002
1 36.4 27.8861 3.40002
1 37.8 27.8859 3.39996
1 38.5 26.6736 3.39995
1 39.9 26.6735 3.39995
1 40.5999 27.8861 3.40003
1 41.9998 27.8859 3.40154
1 42.6999 26.6736 3.40012
1 44.1 26.6737 3.39848
1 44.8 27.8861 3.39926
1 46.2 27.8859 3.39961
1 46.9 26.6737 3.40022
1 48.3 26.6735 3.40003
1 49 27.8861 3.39972
1 50.4 27.8859 3.39965
1 51.1001 26.6736 3.40009
1 52.5 26.6735 3.40009
1 53.2 27.8859 3.39864
1 54.6 27.8859 3.39921
1 55.3 26.6736 3.39912
1 56.7 26.6735 3.4003
1 57.4001 27.8861 3.39978
1 58.8 27.8859 3.40011
1 59.5 26.6736 3.40007
1 60.9 26.6735 3.40015
1 61.6 27.8861 3.3996
1 63 27.886 3.39831
1 63.7001 26.6736 3.39938
1 65.1 26.6735 3.39985
1 65.8 27.886 3.40032
1 67.2 27.8859 3.40021
1 67.9 26.6737 3.40012
1 69.3 26.6735 3.40008
1 70 27.886 3.39991
1 71.4 27.8859 3.3999
1 72.1 26.6737 3.39986
1 73.4999 26.6735 3.39993
1 74.1999 27.886 3.40048
1 75.6 27.886 3.40021
1 76.2999 26.6737 3.40074
1 77.7 26.6736 3.40095
1 78.4 27.8861 3.39991
1 79.8 27.886 3.39996
1 80.5 26.6736 3.39995
1 81.9 26.6735 3.39998
1 82.6 27.8861 3.40011
1 83.9999 30.3109 3.39993
1 0.699933 29.0985 3.40011
1 2.09994 29.0984 3.40004
1 2.79996 30.3109 3.40006
1 4.19996 30.3108 3.40006
1 4.89996 29.0985 3.40006
1 6.29999 29.0984 3.40004
1 7.00001 30.3109 3.40004
1 8.40003 30.3108 3.40005
1 9.10003 29.0985 3.40011
1 10.5 29.0984 3.39989
1 11.2 30.3109 3.39982
1 12.6 30.3108 3.39968
1 13.3 29.0985 3.39966
1 14.7 29.0983 3.39854
1 15.4001 30.311 3.399
1 16.8 30.3108 3.39981
1 17.4999 29.0986 3.40012
1 18.9 29.0985 3.4003
1 19.6 30.3109 3.40036
1 21 30.3108 3.40011
1 21.7 29.0985 3.40006
1 23.1 29.0984 3.40001
1 23.8 30.3109 3.40031
1 25.2 30.3108 3.40094
1 25.9 29.0986 3.4002
1 27.3 29.0985 3.40002
1 28.0001 30.311 3.40011
1 29.4 30.3109 3.40021
1 30.1 29.0986 3.40016
1 31.5 29.0984 3.40018
1 32.2 30.3109 3.39938
1 33.6 30.3108 3.39985
1 34.3 29.0985 3.4001
1 35.7 29.0984 3.4001
1 36.4 30.311 3.4004
1 37.8 30.3109 3.40042
1 38.5 29.0986 3.39995
1 39.9 29.0984 3.39993
1 40.6 30.3109 3.40008
1 42 30.3108 3.40026
1 42.7 29.0987 3.4017
1 44.1 29.0984 3.40041
1 44.8 30.3109 3.40014
1 46.1999 30.3108 3.39949
1 46.9 29.0985 3.39957
1 48.3001 29.0984 3.39937
1 49.0002 30.311 3.39905
1 50.4001 30.3109 3.39993
1 51.1 29.0986 3.39954
1 52.4999 29.0984 3.39881
1 53.1999 30.311 3.40037
1 54.6001 30.3109 3.40193
1 55.3001 29.0985 3.40035
1 56.7 29.0984 3.39986
1 57.4 30.311 3.40001
1 58.8 30.3108 3.40006
1 59.4999 29.0985 3.40073
1 60.9001 29.0984 3.4005
1 61.6 30.3109 3.40014
1 63 30.3108 3.39995
1 63.7 29.0986 3.39957
1 65.1 29.0984 3.40003
1 65.8 30.3109 3.40022
1 67.1999 30.3108 3.39957
1 67.8999 29.0984 3.39885
1 69.3001 29.0982 3.39877
1 70.0001 30.311 3.39944
1 71.4 30.3108 3.39994
1 72.1 29.0985 3.40003
1 73.4999 29.0984 3.40094
1 74.1999 30.311 3.4005
1 75.5999 30.3109 3.39927
1 76.3 29.0985 3.39972
1 77.7 29.0984 3.39986
1 78.3999 30.3109 3.39952
1 79.8 30.3108 3.39991
1 80.5 29.0985 3.40003
1 81.9 29.0984 3.39996
1 82.6 30.3109 3.39988
1 84 32.7357 3.40004
1 0.699939 31.5233 3.4
1 2.09994 31.5233 3.39998
1 2.79998 32.7358 3.39981
1 4.19996 32.7357 3.40005
1 4.89997 31.5234 3.40009
1 6.29997 31.5233 3.40006
1 6.99997 32.7358 3.40007
1 8.4 32.7357 3.40006
1 9.10004 31.5233 3.40007
1 10.5 31.5232 3.40006
1 11.2 32.7357 3.39992
1 12.6 32.7356 3.39939
1 13.3 31.5233 3.39994
1 14.7 31.5232 3.39988
1 15.4 32.7358 3.40023
1 16.8 32.7357 3.40081
1 17.5 31.5233 3.40055
1 18.9 31.5232 3.40032
1 19.6 32.7358 3.4
1 20.9999 32.7356 3.39915
1 21.7 31.5233 3.3999
1 23.1 31.5232 3.40003
1 23.8 32.7358 3.39995
1 25.2 32.7357 3.4
1 25.9001 31.5234 3.40032
1 27.3 31.5232 3.39997
1 28 32.7358 3.39984
1 29.4001 32.7356 3.39983
1 30.1 31.5233 3.3998
1 31.5 31.5233 3.39964
1 32.2 32.7358 3.40017
1 33.5999 32.7356 3.39905
1 34.3 31.5233 3.39938
1 35.7 31.5232 3.39994
1 36.4 32.7358 3.40001
1 37.8 32.7357 3.40012
1 38.5 31.5234 3.40014
1 39.9 31.5232 3.40005
1 40.6 32.7358 3.39989
1 41.9999 32.7357 3.39931
1 42.7 31.5233 3.39961
1 44.1 31.5232 3.39983
1 44.8 32.7358 3.39987
1 46.2 32.7357 3.40003
1 46.8999 31.5235 3.3991
1 48.3001 31.5235 3.39851
1 49.0001 32.7359 3.4
1 50.4 32.7356 3.40013
1 51.1 31.5234 3.40018
1 52.5 31.5233 3.40037
1 53.2001 32.7358 3.40007
1 54.6 32.7357 3.40002
1 55.3 31.5234 3.40046
1 56.7 31.5232 3.40024
1 57.4 32.7358 3.39994
1 58.7999 32.7357 3.39916
1 59.5 31.5233 3.39958
1 60.9 31.5232 3.40024
1 61.6 32.7358 3.4002
1 63 32.7357 3.40025
1 63.7 31.5233 3.40014
1 65.1 31.5232 3.40028
1 65.8 32.7358 3.40035
1 67.2 32.7357 3.3998
1 67.9 31.5234 3.39981
1 69.3 31.5233 3.3998
1 70.0001 32.7358 3.39969
1 71.4 32.7357 3.4
1 72.1 31.5234 3.40011
1 73.5 31.5233 3.40009
1 74.2 32.7358 3.39998
1 75.6 32.7357 3.39977
1 76.3 31.5234 3.39958
1 77.7 31.5232 3.39973
1 78.4 32.7357 3.40011
1 79.8 32.7357 3.4
1 80.5 31.5233 3.39988
1 81.9 31.5233 3.3999
1 82.6 32.7358 3.40003
1 52.4924 2.26094e-05 10.2002
1 53.1937 1.21243 10.1999
1 54.5977 1.21243 10.1998
1 55.2991 4.76558e-05 10.1999
1 56.6997 6.18836e-05 10.2001
1 57.3998 1.21243 10.2006
1 58.7999 1.21245 10.2003
1 59.5001 8.85255e-05 10.1993
1 60.9001 2.52692e-05 10.2002
1 61.6001 1.21245 10.2004
1 63 1.21247 10.2
1 63.7 6.09434e-05 10.2004
1 65.0999 5.32415e-05 10.2014
1 65.7999 1.2125 10.2007
1 67.1999 1.21242 10.2014
1 67.8999 9.52968e-05 10.199
1 69.3 0.000119797 10.1993
1 70 1.21245 10.1999
1 71.4 1.21245 10.2
1 72.1 6.92078e-05 10.2002
1 73.5 0.000105181 10.2
1 74.2 1.21246 10.2001
1 75.6 1.21243 10.2001
1 76.3 7.34405e-05 10.2001
1 77.7 8.25806e-05 10.2007
1 78.4003 1.21244 10.2001
1 79.8009 1.21246 10.2
1 80.5023 8.07853e-05 10.1998
1 81.9064 7.42792e-05 10.1997
1 82.6077 1.21246 10.2
1 52.4924 2.42491 10.2
1 53.1937 3.63725 10.1999
1 54.5977 3.63728 10.1999
1 55.2991 2.42491 10.1999
1 56.6997 2.42487 10.2002
1 57.3999 3.63724 10.2003
1 58.7999 3.63729 10.1999
1 59.5 2.42491 10.2002
1 60.9 2.4249 10.2004
1 61.6 3.63734 10.2005
1 63 3.63732 10.2001
1 63.7 2.42491 10.1994
1 65.1 2.42491 10.1998
1 65.8 3.6373 10.1998
1 67.2 3.63732 10.2002
1 67.9 2.42499 10.2011
1 69.3 2.42491 10.2001
1 70 3.63731 10.1999
1 71.4 3.63734 10.2
1 72.1 2.42494 10.2003
1 73.5 2.42489 10.2002
1 74.2 3.63726 10.2002
1 75.6 3.63724 10.2005
1 76.3 2.42484 10.2
1 77.7001 2.42482 10.1994
1 78.4004 3.63733 10.1986
1 79.801 3.6373 10.1999
1 80.5023 2.42487 10.2
1 81.9063 2.42483 10.1999
1 82.6074 3.63721 10.1992
1 52.4927 4.84967 10.1999
1 53.1941 6.06201 10.1994
1 54.5978 6.06212 10.2
1 55.2991 4.84969 10.2
1 56.6997 4.8497 10.2004
1 57.3999 6.06219 10.2005
1 58.8 6.06219 10.1997
1 59.5 4.84974 10.1995
1 60.9 4.84976 10.2
1 61.5999 6.06216 10.2004
1 63 6.06216 10.2013
1 63.7 4.84969 10.1998
1 65.1 4.84973 10.1993
1 65.8 6.0622 10.2002
1 67.2 6.06222 10.2017
1 67.9 4.84968 10.2005
1 69.3 4.84973 10.1998
1 70 6.06213 10.1994
1 71.4 6.06214 10.1998
1 72.1 4.84972 10.2002
1 73.5 4.84967 10.2001
1 74.2001 6.06216 10.1994
1 75.6001 6.06217 10.2003
1 76.3001 4.84977 10.2003
1 77.7002 4.84987 10.1993
1 78.4003 6.06222 10.1999
1 79.8009 6.06223 10.2004
1 80.5023 4.84972 10.2006
1 81.9062 4.84975 10.1997
1 82.6073 6.06232 10.1991
1 52.4941 7.27458 10.1977
1 53.194 8.48717 10.1998
1 54.5978 8.48711 10.1994
1 55.2991 7.27458 10.1999
1 56.6997 7.27468 10.201
1 57.3998 8.48706 10.2002
1 58.7999 8.48701 10.2
1 59.5 7.27455 10.1996
1 60.9 7.27456 10.1999
1 61.6 8.48699 10.2003
1 63 8.48701 10.2004
1 63.7 7.27461 10.2003
1 65.1 7.27457 10.1996
1 65.8001 8.48703 10.1992
1 67.2 8.48703 10.2
1 67.9 7.27466 10.2004
1 69.2999 7.27463 10.1993
1 70 8.48704 10.1998
1 71.3999 8.48701 10.2003
1 72.1 7.27462 10.1996
1 73.5 7.27473 10.199
1 74.2 8.48707 10.1999
1 75.6 8.48701 10.2005
1 76.3001 7.27462 10.2008
1 77.7002 7.27459 10.2002
1 78.4003 8.48701 10.2002
1 79.8009 8.48701 10.1999
1 80.5023 7.27462 10.2
1 81.9063 7.27464 10.2
1 82.6076 8.48701 10.1997
1 52.4925 9.69952 10.2
1 53.1936 10.912 10.2
1 54.5977 10.9119 10.2
1 55.2991 9.69952 10.1999
1 56.6997 9.69947 10.2
1 57.3998 10.9119 10.2
1 58.7999 10.9119 10.2002
1 59.5 9.69949 10.2
1 60.9 9.69949 10.2001
1 61.6 10.9119 10.2002
1 63 10.9119 10.2001
1 63.7 9.69952 10.2
1 65.1 9.69956 10.1994
1 65.8 10.9119 10.2
1 67.2 10.9119 10.2
1 67.9 9.6995 10.2002
1 69.3 9.69945 10.2003
1 70 10.9119 10.2008
1 71.4 10.912 10.2003
1 72.1 9.69954 10.2008
1 73.5 9.69946 10.2002
1 74.2 10.9119 10.2003
1 75.5999 10.9119 10.1997