LAMMPS data file via write_data, version 15 May 2015, timestep = 2000000

5871 atoms
10 atom types
5416 bonds
8 bond types
6751 angles
11 angle types
10752 dihedrals
13 dihedral types

0.0000000000000000e+00 8.4000000000000000e+01 xlo xhi
0.0000000000000000e+00 3.3948000000000000e+01 ylo yhi
0.0000000000000000e+00 2.0000000000000000e+01 zlo zhi

Masses

1	12.011  	# CA
2	12.011		# CT
3	15.9994		# OS
4	12.011		# CF
5	15.9994		# OH
6	1.0008		# HO
7	1.0008		# HW
8	15.9994		# OW
9	22.9898		# Na		
10	35.4500		# Cl

Atoms # full

4 1 1 0.0000000000000000e+00 2.8000336703611097e+00 1.2122946795969172e+00 4.9989660547670196e+00 0 0 0
5 1 1 0.0000000000000000e+00 4.2000110881442110e+00 1.2124883679005025e+00 4.9997946322841971e+00 0 0 0
82 1 1 0.0000000000000000e+00 7.0000602826883984e-01 2.4249106312530522e+00 4.9999703300723644e+00 0 0 0
83 1 1 0.0000000000000000e+00 2.0999148457456647e+00 2.4249965062572145e+00 4.9993259973680200e+00 0 0 0
84 1 1 0.0000000000000000e+00 2.7999120959151762e+00 3.6372191845516411e+00 4.9992706080336173e+00 0 0 0
85 1 1 0.0000000000000000e+00 4.2000331104230755e+00 3.6372240006696899e+00 4.9988886744033918e+00 0 0 0
86 1 1 0.0000000000000000e+00 4.8999872356235041e+00 2.4248037539798912e+00 4.9998880212690056e+00 0 0 0
87 1 1 0.0000000000000000e+00 6.2999540400822021e+00 2.4249534969862272e+00 5.0000408306419590e+00 0 0 0
162 1 1 0.0000000000000000e+00 7.0001940419112407e-01 4.8496835868288688e+00 5.0002636190403962e+00 0 0 0
163 1 1 0.0000000000000000e+00 2.0999323495425530e+00 4.8497540799005252e+00 5.0001783297734770e+00 0 0 0
164 1 1 0.0000000000000000e+00 2.7999803448064862e+00 6.0621436183934962e+00 5.0001980774976840e+00 0 0 0
165 1 1 0.0000000000000000e+00 4.1999779393531460e+00 6.0622479075879472e+00 5.0000390793964211e+00 0 0 0
166 1 1 0.0000000000000000e+00 4.9000431664190431e+00 4.8496753845971172e+00 4.9995014236532027e+00 0 0 0
167 1 1 0.0000000000000000e+00 6.2999916700697298e+00 4.8497724558759741e+00 4.9999802425780357e+00 0 0 0
242 1 1 0.0000000000000000e+00 7.0001918513729566e-01 7.2745060503132235e+00 4.9999654696643789e+00 0 0 0
243 1 1 0.0000000000000000e+00 2.1000079437606591e+00 7.2746125309762233e+00 5.0000668568976998e+00 0 0 0
246 1 1 0.0000000000000000e+00 4.8999012534943098e+00 7.2745622634122675e+00 5.0005991808107328e+00 0 0 0
247 1 1 0.0000000000000000e+00 6.3000692764244084e+00 7.2746389447323194e+00 5.0001782192717377e+00 0 0 0
81 1 1 0.0000000000000000e+00 3.9791893996461799e-05 3.6373595989726470e+00 5.0002686714127575e+00 0 0 0
3 1 1 0.0000000000000000e+00 2.1000584265347895e+00 5.9000198936135358e-05 4.9998564689559748e+00 0 0 0
8 1 1 0.0000000000000000e+00 6.9999546248431521e+00 1.2124184811819307e+00 4.9999761657968227e+00 0 0 0
88 1 1 0.0000000000000000e+00 6.9999429255838335e+00 3.6372479218640739e+00 5.0000003630026217e+00 0 0 0
1 1 1 0.0000000000000000e+00 3.0945961705398954e-05 1.2125181936455562e+00 5.0000335722095146e+00 0 0 0
244 1 1 0.0000000000000000e+00 2.8000218967356969e+00 8.4869234454129785e+00 5.0000879367790620e+00 0 0 0
161 1 1 0.0000000000000000e+00 1.8833991873283357e-05 6.0621984525434582e+00 5.0001058971935546e+00 0 0 0
7 1 1 0.0000000000000000e+00 6.2999531023412905e+00 1.1168367657386829e-04 5.0000201611643975e+00 0 0 0
2 1 1 0.0000000000000000e+00 7.0008272539767447e-01 3.5052212190578302e-05 5.0000193235641337e+00 0 0 0
6 1 1 0.0000000000000000e+00 4.8999742305741423e+00 1.0068153933673329e-05 4.9998924429250593e+00 0 0 0
5748 1312 7 4.2359999999999998e-01 5.2089199700905429e+00 8.7580966922042833e+00 2.3670290424896980e+00 1 2 1
2924 370 8 -8.4719999999999995e-01 3.5134419045683614e+00 7.6628136395264619e+00 2.0241453211273743e+00 0 -3 0
5750 1312 8 -8.4719999999999995e-01 5.8649271645926069e+00 9.3266976327979059e+00 1.8706949393809278e+00 1 2 1
4047 745 7 4.2359999999999998e-01 7.0602091527625879e+00 8.5052287332518848e+00 1.0597193559271680e+00 0 -1 1
2923 370 7 4.2359999999999998e-01 3.8447708856586917e+00 7.4057867264351716e+00 1.1163135332750345e+00 0 -3 0
2934 374 7 4.2359999999999998e-01 9.5673781562066518e-01 1.9932659802338200e+00 6.7916690179273731e-01 0 -1 0
1947 45 7 4.2359999999999998e-01 1.1878743468745703e-02 9.4862465187478300e+00 1.1843550519996228e+01 1 -3 -1
4045 744 7 4.2359999999999998e-01 4.3576852687623218e+00 4.8820733310770628e+00 2.7502280385882444e-01 1 2 1
4046 744 8 -8.4719999999999995e-01 3.6968576644747650e+00 5.5024877248065218e+00 1.9852656485436693e+01 1 2 0
2936 374 8 -8.4719999999999995e-01 8.3189158550359898e-01 2.6408813077267292e+00 1.4308369821969995e+00 0 -1 0
4044 744 7 4.2359999999999998e-01 2.9660053869137308e+00 4.9703198621654918e+00 1.9425277796705910e+01 1 2 0
4129 772 7 4.2359999999999998e-01 6.1690572909778139e+00 5.0375017188008080e+00 2.1174569267389525e+00 0 1 1
4130 772 8 -8.4719999999999995e-01 5.2464668256837133e+00 4.6595125933478423e+00 2.0403135963850185e+00 0 1 1
4128 772 7 4.2359999999999998e-01 4.6132424642200140e+00 5.2128225833205928e+00 2.5814928361939411e+00 0 1 1
5191 1126 7 4.2359999999999998e-01 1.3097594792307577e+01 3.2662508658901763e+00 1.5060914923367989e+01 0 -2 0
5537 1241 8 -8.4719999999999995e-01 1.1422789443830299e+00 4.4546598798207357e+00 1.8434535124131298e+01 0 -1 0
5340 1176 7 4.2359999999999998e-01 3.6600355623009084e-01 1.2560614960568074e+01 2.1964663991623459e+00 0 -1 1
2922 370 7 4.2359999999999998e-01 2.5260781061520072e+00 7.8169441271659412e+00 1.9873047303848494e+00 0 -3 0
4420 869 7 4.2359999999999998e-01 4.8442180919185823e-01 1.0921744598728734e+01 8.4129108213415300e+00 0 -1 0
3907 698 7 4.2359999999999998e-01 1.0115725334708189e+01 7.9497861811367587e-01 1.2618964948374585e+00 1 1 1
9 1 1 0.0000000000000000e+00 8.3999429067225631e+00 1.2124927845780131e+00 4.9997073281800297e+00 0 0 0
12 1 1 0.0000000000000000e+00 1.1200033406082769e+01 1.2124292295420473e+00 4.9998703944245246e+00 0 0 0
13 1 1 0.0000000000000000e+00 1.2599999837660825e+01 1.2125686806530431e+00 4.9999442897204149e+00 0 0 0
89 1 1 0.0000000000000000e+00 8.3999473015213262e+00 3.6373940917200138e+00 4.9998668935649029e+00 0 0 0
90 1 1 0.0000000000000000e+00 9.0999544310395439e+00 2.4248838875425478e+00 4.9990780441779039e+00 0 0 0
91 1 1 0.0000000000000000e+00 1.0500067200383416e+01 2.4249831925727952e+00 4.9994881935624882e+00 0 0 0
92 1 1 0.0000000000000000e+00 1.1200015284700926e+01 3.6372449292260964e+00 5.0000737646148492e+00 0 0 0
93 1 1 0.0000000000000000e+00 1.2600011904492009e+01 3.6373546903514971e+00 4.9999900117440008e+00 0 0 0
94 1 1 0.0000000000000000e+00 1.3300002729764792e+01 2.4248487760982305e+00 4.9999304455336651e+00 0 0 0
168 1 1 0.0000000000000000e+00 7.0000346460212075e+00 6.0621023692628286e+00 5.0001192981745914e+00 0 0 0
169 1 1 0.0000000000000000e+00 8.4000181763008950e+00 6.0622851651389835e+00 4.9999724456293926e+00 0 0 0
170 1 1 0.0000000000000000e+00 9.1000016554950012e+00 4.8497019606590586e+00 4.9999791743110347e+00 0 0 0
171 1 1 0.0000000000000000e+00 1.0499993887456714e+01 4.8498120473018549e+00 5.0001670458148473e+00 0 0 0
172 1 1 0.0000000000000000e+00 1.1199988843955486e+01 6.0621718810301619e+00 5.0000848250482175e+00 0 0 0
173 1 1 0.0000000000000000e+00 1.2599968798452688e+01 6.0622693881821270e+00 5.0000277014081407e+00 0 0 0
174 1 1 0.0000000000000000e+00 1.3300010097653468e+01 4.8496702925872741e+00 4.9999577932471855e+00 0 0 0
250 1 1 0.0000000000000000e+00 9.1000165300396940e+00 7.2745826570956797e+00 5.0000454902943607e+00 0 0 0
251 1 1 0.0000000000000000e+00 1.0499991846676924e+01 7.2746888133442580e+00 5.0000720737386342e+00 0 0 0
254 1 1 0.0000000000000000e+00 1.3299974649703421e+01 7.2745822375086151e+00 5.0000571375683682e+00 0 0 0
252 1 1 0.0000000000000000e+00 1.1199972452943470e+01 8.4869774911694957e+00 4.9998892990292951e+00 0 0 0
11 1 1 0.0000000000000000e+00 1.0499991535185252e+01 1.6015926923439096e-04 5.0000357369246355e+00 0 0 0
10 1 1 0.0000000000000000e+00 9.0999739273043243e+00 1.1068752563403450e-05 4.9999701962940577e+00 0 0 0
14 1 1 0.0000000000000000e+00 1.3299984792180632e+01 3.1485157840904776e-05 4.9999339874020698e+00 0 0 0
3403 530 7 4.2359999999999998e-01 1.1884273843399123e+01 5.4904269670542742e+00 2.0584058549328685e+00 1 3 0
3404 530 8 -8.4719999999999995e-01 1.0887544492648949e+01 5.5712204413789035e+00 2.0601519844059779e+00 1 3 0
3402 530 7 4.2359999999999998e-01 1.0548202078740633e+01 5.4900788818089898e+00 2.9973087374012395e+00 1 3 0
5032 1073 7 4.2359999999999998e-01 1.0522350907346226e+01 6.1568794332809391e+00 3.5088487731721757e-01 1 -1 1
5033 1073 8 -8.4719999999999995e-01 1.0031886336850340e+01 6.6539342980987985e+00 1.9635076952634840e+01 1 -1 0
5397 1195 7 4.2359999999999998e-01 8.5048855691013951e+00 5.1418521722590960e+00 1.5202392064489105e+00 1 -3 1
5655 1281 7 4.2359999999999998e-01 1.2712622563360776e+01 7.1978161109465830e+00 1.4284634771868704e-01 0 1 1
3729 639 7 4.2359999999999998e-01 8.4351535304825145e+00 1.4294415347766693e+01 1.5469864234979132e+01 1 -3 -1
5031 1073 7 4.2359999999999998e-01 9.4536014883761599e+00 7.3549319082354332e+00 5.2436499358513800e-02 1 -1 1
5399 1195 8 -8.4719999999999995e-01 7.7192835928963754e+00 5.6637932137449818e+00 1.8525148278625794e+00 1 -3 1
3908 698 8 -8.4719999999999995e-01 1.0726086291326533e+01 1.2888018985113431e-01 8.3320963859647534e-01 1 1 1
3906 698 7 4.2359999999999998e-01 1.0754304738843329e+01 2.8932278119836480e-01 1.9846567903436124e+01 1 1 0
5657 1281 8 -8.4719999999999995e-01 1.3193863768697071e+01 7.7386305641394433e+00 8.3272083653251217e-01 0 1 1
4049 745 8 -8.4719999999999995e-01 7.5848045763652543e+00 7.9128989478810823e+00 4.4820885134251304e-01 0 -1 1
5398 1195 7 4.2359999999999998e-01 7.7181503340212885e+00 6.5699462111384239e+00 1.4295662585358817e+00 1 -3 1
5801 1329 8 -8.4719999999999995e-01 1.2834019548991041e+01 1.6385900961736318e+01 1.6702819176294444e+01 -1 0 0
2744 310 8 -8.4719999999999995e-01 1.3382454948779106e+01 4.7812021492797552e+00 2.0530381406793863e+00 2 2 0
3361 516 7 4.2359999999999998e-01 1.2220673987958621e+00 8.2731915927749515e+00 7.8160960773548718e+00 1 2 -1
3235 474 7 4.2359999999999998e-01 3.0337202352322894e+00 1.0720184594548082e+01 2.6100063866048073e-01 2 -3 0
5749 1312 7 4.2359999999999998e-01 5.4154487280124579e+00 9.7403529459280627e+00 1.0789510062031831e+00 1 2 1
3236 474 8 -8.4719999999999995e-01 2.0476867149112921e+00 1.0835053936396779e+01 1.4040390277739784e-01 2 -3 0
3234 474 7 4.2359999999999998e-01 1.6071928386245355e+00 9.9374631322211311e+00 1.2318442585097790e-01 2 -3 0
5342 1176 8 -8.4719999999999995e-01 1.1481758721928967e+00 1.2903221075260754e+01 1.6760543740448048e+00 0 -1 1
1943 43 8 -8.4719999999999995e-01 8.0887374971256083e+00 1.6517331008310077e+01 1.2665766687032157e+01 -2 -2 -1
5471 1219 8 -8.4719999999999995e-01 4.9406943922395339e+00 1.0270021243145123e+01 1.9580097136766362e+01 1 -2 0
5469 1219 7 4.2359999999999998e-01 4.3568950078110786e+00 9.7205064715134242e+00 1.8982425028897662e+01 1 -2 0
245 1 1 0.0000000000000000e+00 4.2000046430983753e+00 8.4870573523547019e+00 5.0001193948573253e+00 0 0 0
322 1 1 0.0000000000000000e+00 6.9997429495108510e-01 9.6994210223503625e+00 5.0000585007844300e+00 0 0 0
323 1 1 0.0000000000000000e+00 2.1000024784207798e+00 9.6995031678320434e+00 5.0001102521118241e+00 0 0 0
324 1 1 0.0000000000000000e+00 2.7999805923659555e+00 1.0911848483377941e+01 4.9998728378673745e+00 0 0 0
325 1 1 0.0000000000000000e+00 4.2000455894422934e+00 1.0911941996595994e+01 5.0000200868065896e+00 0 0 0
326 1 1 0.0000000000000000e+00 4.9000561891471870e+00 9.6993855368754378e+00 5.0000667688563203e+00 0 0 0
327 1 1 0.0000000000000000e+00 6.3000497248218075e+00 9.6995877884987696e+00 4.9997529443516839e+00 0 0 0
402 1 1 0.0000000000000000e+00 6.9998028160265569e-01 1.2124324770339630e+01 5.0000432284037863e+00 0 0 0
403 1 1 0.0000000000000000e+00 2.0999730489600945e+00 1.2124454051948982e+01 4.9999777242543351e+00 0 0 0
404 1 1 0.0000000000000000e+00 2.8000095476137701e+00 1.3336749305449834e+01 5.0000229556553455e+00 0 0 0
405 1 1 0.0000000000000000e+00 4.1999979177123512e+00 1.3336867056390675e+01 5.0000778376171153e+00 0 0 0
406 1 1 0.0000000000000000e+00 4.9000262101560708e+00 1.2124335085857053e+01 5.0001037987979595e+00 0 0 0
407 1 1 0.0000000000000000e+00 6.3000278258375122e+00 1.2124409595945536e+01 5.0000163690055022e+00 0 0 0
482 1 1 0.0000000000000000e+00 6.9997662858441478e-01 1.4549184542412275e+01 5.0000676700214139e+00 0 0 0
483 1 1 0.0000000000000000e+00 2.1000056472249362e+00 1.4549288885893239e+01 4.9999706593748892e+00 0 0 0
484 1 1 0.0000000000000000e+00 2.7999759879453823e+00 1.5761615821686437e+01 4.9997704545770549e+00 0 0 0
485 1 1 0.0000000000000000e+00 4.2000114911975617e+00 1.5761707053216922e+01 4.9997344533523922e+00 0 0 0
486 1 1 0.0000000000000000e+00 4.8999957164352335e+00 1.4549161567330907e+01 5.0000102412329142e+00 0 0 0
487 1 1 0.0000000000000000e+00 6.2999979017538408e+00 1.4549274026795850e+01 5.0000242790811260e+00 0 0 0
328 1 1 0.0000000000000000e+00 6.9999658276374541e+00 1.0911859903786270e+01 4.9994755819250614e+00 0 0 0
488 1 1 0.0000000000000000e+00 6.9999868998465384e+00 1.5761637918805320e+01 4.9999508521614571e+00 0 0 0
3968 718 8 -8.4719999999999995e-01 2.0336684292480016e+00 1.5557783706144502e+01 2.3473390683017259e+00 1 -1 1
3967 718 7 4.2359999999999998e-01 1.5527288447494154e+00 1.4699938769293384e+01 2.1662335620964814e+00 1 -1 1
2207 131 8 -8.4719999999999995e-01 5.4802502315083084e+00 1.2805396438095460e+01 1.8995062043904682e+00 -1 3 0
2206 131 7 4.2359999999999998e-01 4.7540299258887160e+00 1.2135793438572440e+01 2.0551853283602997e+00 -1 3 0
5470 1219 7 4.2359999999999998e-01 5.0205676072639713e+00 1.1195219221355734e+01 1.9209113197448705e+01 1 -2 0
4549 912 7 4.2359999999999998e-01 3.4361407260902217e+00 1.5642461381245315e+01 1.4421487454138888e+00 1 3 1
4296 828 7 4.2359999999999998e-01 7.4400345683987021e+00 1.5334632390449507e+01 1.9762399726143229e+00 1 -2 1
4146 778 7 4.2359999999999998e-01 7.4497329929439235e+00 1.0330864318122616e+01 2.2669256727568081e+00 1 5 1
3868 685 7 4.2359999999999998e-01 7.2706075886227204e+00 1.6448697361140933e+01 1.0829775488109707e+01 0 -3 0
4548 912 7 4.2359999999999998e-01 3.9652726967508936e+00 1.5429804964192428e+01 1.9911977805489482e+01 1 3 0
4550 912 8 -8.4719999999999995e-01 4.2403415040198267e+00 1.5650033417403099e+01 8.4783922409600265e-01 1 3 1
5341 1176 7 4.2359999999999998e-01 1.4179732493968777e+00 1.2223749513496330e+01 9.9375750500868465e-01 0 -1 1
5067 1085 7 4.2359999999999998e-01 1.3902118692060180e+01 1.2298648000888589e+01 1.3131818355665899e+01 0 2 0
2205 131 7 4.2359999999999998e-01 5.0746205309643031e+00 1.3703074173052405e+01 1.7273449643164940e+00 -1 3 0
4148 778 8 -8.4719999999999995e-01 7.9393734888677168e+00 1.1156762015056682e+01 1.9873800248256466e+00 1 5 1
4147 778 7 4.2359999999999998e-01 7.3785394203264003e+00 1.1674024659144607e+01 1.3409244305028201e+00 1 5 1
5254 1147 7 4.2359999999999998e-01 9.5585101542311364e+00 1.4335340125610665e+01 8.6974871496318407e-01 0 2 1
5255 1147 8 -8.4719999999999995e-01 1.0504404066841023e+01 1.4549273040004948e+01 6.2578529408073580e-01 0 2 1
249 1 1 0.0000000000000000e+00 8.4000691368066072e+00 8.4871108772946862e+00 4.9999567559402838e+00 0 0 0
253 1 1 0.0000000000000000e+00 1.2599986570493627e+01 8.4871037223727068e+00 4.9998891595549049e+00 0 0 0
248 1 1 0.0000000000000000e+00 7.0001207403226955e+00 8.4870639535084003e+00 4.9993412530635695e+00 0 0 0
329 1 1 0.0000000000000000e+00 8.4000083165716237e+00 1.0912010523768574e+01 4.9982691811366102e+00 0 0 0
330 1 1 0.0000000000000000e+00 9.1000754070434926e+00 9.6993776393527060e+00 4.9993701546091174e+00 0 0 0
331 1 1 0.0000000000000000e+00 1.0500000919426679e+01 9.6995303938727329e+00 4.9999533064486226e+00 0 0 0
332 1 1 0.0000000000000000e+00 1.1200001532284650e+01 1.0911836735003133e+01 5.0002876364878928e+00 0 0 0
333 1 1 0.0000000000000000e+00 1.2599916827671850e+01 1.0911958880555977e+01 5.0005559884249058e+00 0 0 0
334 1 1 0.0000000000000000e+00 1.3299995048144384e+01 9.6993718852077677e+00 5.0003152367047843e+00 0 0 0
408 1 1 0.0000000000000000e+00 7.0000213335417181e+00 1.3336704630339920e+01 5.0000898881732683e+00 0 0 0
409 1 1 0.0000000000000000e+00 8.4000039957170838e+00 1.3336834335129922e+01 5.0000303085947966e+00 0 0 0
410 1 1 0.0000000000000000e+00 9.0999986008940130e+00 1.2124363777463019e+01 4.9998768339372228e+00 0 0 0
411 1 1 0.0000000000000000e+00 1.0500017882445702e+01 1.2124445542821746e+01 5.0003375730213486e+00 0 0 0
412 1 1 0.0000000000000000e+00 1.1199959784221337e+01 1.3336635265540844e+01 4.9991346789903011e+00 0 0 0
413 1 1 0.0000000000000000e+00 1.2600094725391662e+01 1.3336744340396258e+01 4.9985603691283522e+00 0 0 0
414 1 1 0.0000000000000000e+00 1.3299975255362851e+01 1.2124346864979815e+01 5.0003573968932109e+00 0 0 0
489 1 1 0.0000000000000000e+00 8.4000055156537581e+00 1.5761749688035065e+01 4.9999934239667123e+00 0 0 0
490 1 1 0.0000000000000000e+00 9.1000076251234869e+00 1.4549140837598193e+01 5.0000320626493826e+00 0 0 0
491 1 1 0.0000000000000000e+00 1.0499991361578891e+01 1.4549245028195941e+01 4.9997418085894818e+00 0 0 0
492 1 1 0.0000000000000000e+00 1.1200016670387534e+01 1.5761616782724108e+01 4.9998055836666584e+00 0 0 0
493 1 1 0.0000000000000000e+00 1.2600060070566288e+01 1.5761752017040790e+01 4.9998387585986332e+00 0 0 0
494 1 1 0.0000000000000000e+00 1.3300115166774670e+01 1.4549171533705309e+01 4.9993412432853681e+00 0 0 0
4544 910 8 -8.4719999999999995e-01 1.0669923600142546e+01 1.2027517736333525e+01 1.3371445612087538e+00 0 -1 1
4543 910 7 4.2359999999999998e-01 1.0943844446925423e+01 1.2960669922076884e+01 1.1043453357065594e+00 0 -1 1
4542 910 7 4.2359999999999998e-01 1.0146804317600981e+01 1.2036492495827980e+01 2.1893569680456006e+00 0 -1 1
4297 828 7 4.2359999999999998e-01 7.1864406144500412e+00 1.3727136705548277e+01 2.1114252508489582e+00 1 -2 1
4298 828 8 -8.4719999999999995e-01 7.8530286253806496e+00 1.4430700571887638e+01 1.8651344508486667e+00 1 -2 1
5515 1234 7 4.2359999999999998e-01 1.3565175650233353e+01 1.4172547987224160e+01 1.7815998561303430e+00 0 4 1
5656 1281 7 4.2359999999999998e-01 1.2956086871196232e+01 8.7039576912579353e+00 7.2498838220633022e-01 0 1 1
5516 1234 8 -8.4719999999999995e-01 1.3065905188530566e+01 1.5001764792884389e+01 1.5303459533623944e+00 0 4 1
2742 310 7 4.2359999999999998e-01 1.3477823958966550e+01 3.8439911162525333e+00 2.3885105705151473e+00 2 2 0
3890 692 8 -8.4719999999999995e-01 5.8472796312893989e+00 1.6708595660992643e+01 1.5890974611827755e+01 0 3 0
3966 718 7 4.2359999999999998e-01 2.1491888644477215e+00 1.5673284956328946e+01 3.3339060947276313e+00 1 -1 1
5514 1234 7 4.2359999999999998e-01 1.2108258243397616e+01 1.4773819502232502e+01 1.3544104965633599e+00 0 4 1
5708 1298 8 -8.4719999999999995e-01 1.2953719212092745e+01 1.0693836914315241e+01 5.4997873937658026e-01 1 0 1
5706 1298 7 4.2359999999999998e-01 1.3041162626991481e+01 1.1167441373820820e+01 1.9673592386236169e+01 1 0 0
5707 1298 7 4.2359999999999998e-01 1.2164359660676046e+01 1.1054779281213516e+01 1.0466004171412495e+00 1 0 1
2243 143 8 -8.4719999999999995e-01 1.2886337709693533e+01 1.0482984231136784e+01 1.6092228588708878e+01 1 0 -1
3649 612 7 4.2359999999999998e-01 1.3132088978623207e+01 1.0375239335590940e+01 1.4350655698102226e+01 0 -2 -1
5253 1147 7 4.2359999999999998e-01 1.0519442428737118e+01 1.5061644710565664e+01 1.9767152752161511e+01 0 2 0
5236 1141 7 4.2359999999999998e-01 1.5208205601388185e+00 4.5820072704802817e+00 1.1392200128085307e+01 0 1 0
1868 18 8 -8.4719999999999995e-01 7.2906826328520147e-01 8.0966342144957810e+00 1.6436398793213574e+00 0 -1 0
1979 55 8 -8.4719999999999995e-01 9.9442955797336918e-01 1.1166840551586101e+00 1.2073285075067522e+01 1 0 -1
3023 403 8 -8.4719999999999995e-01 5.3774830421038882e+00 1.0200889063015195e+00 7.9888108358896188e+00 1 2 -1
4315 834 7 4.2359999999999998e-01 2.1877001312116189e+00 8.2860582078342908e+00 1.1548502865628068e+01 1 4 0
3356 514 8 -8.4719999999999995e-01 1.9215728592212826e+00 2.5686089987285841e+00 8.8584500711011387e+00 0 2 -1
4458 882 7 4.2359999999999998e-01 2.8426343702898853e+00 3.5737057719201344e+00 1.2384042219465925e+01 0 2 0
2770 319 7 4.2359999999999998e-01 3.9040717140792642e+00 4.8756434357920480e+00 8.3172452671951707e+00 0 0 -1
2861 349 8 -8.4719999999999995e-01 5.1399679195969750e+00 2.4222283268712137e+00 1.0413913882898221e+01 1 1 -1
2860 349 7 4.2359999999999998e-01 5.2201011438039151e+00 2.0220397520054165e+00 9.5009903818228576e+00 1 1 -1
3362 516 8 -8.4719999999999995e-01 1.5981328228982630e+00 7.3475196994573615e+00 7.8574042436302758e+00 1 2 -1
2769 319 7 4.2359999999999998e-01 2.7117712171699258e+00 5.8161303199702603e+00 7.7168024522347984e+00 0 0 -1
2771 319 8 -8.4719999999999995e-01 2.9515527210205410e+00 4.8916504242894101e+00 8.0131842848338106e+00 0 0 -1
4460 882 8 -8.4719999999999995e-01 2.8444866270354261e+00 3.3171033063290150e+00 1.1417526957746631e+01 0 2 0
5851 1346 7 4.2359999999999998e-01 3.1971474136689504e+00 7.9217721659955691e+00 9.1489650483695719e+00 1 1 0
4727 971 8 -8.4719999999999995e-01 3.0207356849157483e+00 4.2364358177220423e+00 1.4078015061521933e+01 -1 0 0
4726 971 7 4.2359999999999998e-01 3.2462009280537587e+00 5.1851159777972526e+00 1.3856268838043331e+01 -1 0 0
4459 882 7 4.2359999999999998e-01 3.7466201636947001e+00 2.9652578799295171e+00 1.1167807312304348e+01 0 2 0
3355 514 7 4.2359999999999998e-01 2.3999898830021231e+00 3.3355289927213225e+00 8.4307224234260154e+00 0 2 -1
5850 1346 7 4.2359999999999998e-01 4.5613352195879582e+00 8.0476433359083188e+00 1.0037657872278702e+01 1 1 0
4987 1058 7 4.2359999999999998e-01 5.3403171915309544e+00 4.2771956615047797e+00 9.5521819798558312e+00 1 0 0
4988 1058 8 -8.4719999999999995e-01 5.5034285366662630e+00 4.8727337507821060e+00 8.7655883027935744e+00 1 0 0
4986 1058 7 4.2359999999999998e-01 5.9412625158808847e+00 5.7178016809650902e+00 9.0724468297070295e+00 1 0 0
4316 834 8 -8.4719999999999995e-01 1.7545537911082840e+00 7.7419414351004816e+00 1.2267057879843756e+01 1 4 0
5852 1346 8 -8.4719999999999995e-01 3.6757393563228553e+00 8.4667231103845086e+00 9.8374261851686047e+00 1 1 0
1978 55 7 4.2359999999999998e-01 1.8527831622998754e+00 1.1999508295715793e+00 1.1567028470817004e+01 1 0 -1
3917 701 8 -8.4719999999999995e-01 5.7223403527544354e+00 7.3935060162400514e+00 1.3123197466917793e+01 1 2 0
3354 514 7 4.2359999999999998e-01 1.9804517467311489e+00 2.6520711298407034e+00 9.8532200869721720e+00 0 2 -1
2859 349 7 4.2359999999999998e-01 5.3058646611108342e+00 1.7166660509822502e+00 1.1102870103583868e+01 1 1 -1
3889 692 7 4.2359999999999998e-01 6.8107212370263550e+00 1.6852820230447389e+01 1.6116761150664260e+01 0 3 0
3621 603 7 4.2359999999999998e-01 6.0775288456426004e+00 7.0378741219311172e+00 1.1560176574139218e+01 0 -3 -1
3623 603 8 -8.4719999999999995e-01 6.2360402912562254e+00 6.9045805228974046e+00 1.0581858120644794e+01 0 -3 -1
2753 313 8 -8.4719999999999995e-01 7.5003653722191652e+00 4.2445924037390856e+00 1.1437016028579716e+01 1 -1 -1
2752 313 7 4.2359999999999998e-01 6.9050777858717893e+00 4.9654794588338902e+00 1.1082115248191625e+01 1 -1 -1
2751 313 7 4.2359999999999998e-01 7.0131965051365333e+00 3.7257857347504957e+00 1.2139515978789683e+01 1 -1 -1
3622 603 7 4.2359999999999998e-01 7.0104162741097307e+00 7.4660390022867702e+00 1.0290128384629909e+01 0 -3 -1
2241 143 7 4.2359999999999998e-01 1.2463865956258330e+01 9.5775946847620403e+00 1.6049950311138254e+01 1 0 -1
3500 562 8 -8.4719999999999995e-01 1.2222136076642784e-01 1.4727521761675787e+01 1.9424972670741081e+01 1 -3 -1
4042 743 7 4.2359999999999998e-01 1.2487956012357534e+01 1.2841903870161795e+00 1.2961750885459567e+01 2 1 0
3256 481 7 4.2359999999999998e-01 1.3527260126795955e+01 1.5754109523346000e+00 8.0089041951739510e+00 1 3 -1
3511 566 7 4.2359999999999998e-01 8.1926541632918113e+00 1.3027306424561109e+01 1.9024681173540895e+01 1 -4 -1
3512 566 8 -8.4719999999999995e-01 7.6416152177420757e+00 1.3850731844020990e+01 1.9160057898708043e+01 1 -4 -1
5333 1173 8 -8.4719999999999995e-01 5.5334913248484552e-01 1.5956518397139870e+01 1.1783364856583875e+01 1 1 0
2541 243 7 4.2359999999999998e-01 7.4379804214006029e+00 3.1606881525874417e+00 7.7822622923891762e+00 1 1 -1
3930 706 7 4.2359999999999998e-01 1.2305696818603218e+01 4.8842317984999877e+00 1.2496517125809980e+01 0 0 0
2542 243 7 4.2359999999999998e-01 8.7178105968926047e+00 4.0553616021337291e+00 8.2599867798120528e+00 1 1 -1
2543 243 8 -8.4719999999999995e-01 8.3718976039996118e+00 3.1250622782839379e+00 8.1379724972886134e+00 1 1 -1
5743 1310 7 4.2359999999999998e-01 8.9809529890964797e+00 1.6472602122300692e+00 8.3379616821885207e+00 0 2 0
1956 48 7 4.2359999999999998e-01 9.0032296340138291e+00 4.7629377442087506e+00 1.0531046266352284e+01 1 0 -1
1958 48 8 -8.4719999999999995e-01 9.7854625153034096e+00 5.2880380582354194e+00 1.0195812910759454e+01 1 0 -1
1957 48 7 4.2359999999999998e-01 9.9900341407592155e+00 6.0275056458874037e+00 1.0837169407397546e+01 1 0 -1
4705 964 7 4.2359999999999998e-01 1.1836360385321957e+01 5.8457257426783817e+00 7.5732117253475462e+00 0 -3 0
5596 1261 7 4.2359999999999998e-01 1.2142497086070478e+01 9.0395163302687696e+00 7.3501817967864058e+00 0 3 0
4043 743 8 -8.4719999999999995e-01 1.3264445190751633e+01 1.8431172851570934e+00 1.3252724025859173e+01 2 1 0
4706 964 8 -8.4719999999999995e-01 1.2119568804759856e+01 5.1953837664678453e+00 8.2780864294705108e+00 0 -3 0
4041 743 7 4.2359999999999998e-01 1.3288261116980035e+01 2.6861270712476664e+00 1.2715353264711796e+01 2 1 0
4301 829 8 -8.4719999999999995e-01 9.3791873867010125e+00 1.9586090613750660e+00 1.1035972131111016e+01 1 0 0
4704 964 7 4.2359999999999998e-01 1.1310019758580385e+01 4.8145317027100569e+00 8.7248327370129921e+00 0 -3 0
4299 829 7 4.2359999999999998e-01 9.4193645506703412e+00 1.4849324801927200e+00 1.0156190151947989e+01 1 0 0
4300 829 7 4.2359999999999998e-01 8.6691918026651020e+00 2.6620735282887464e+00 1.1003660687047116e+01 1 0 0
5744 1310 8 -8.4719999999999995e-01 9.3435022111610486e+00 7.6315055485973649e-01 8.6327637268205493e+00 0 2 0
1959 49 7 4.2359999999999998e-01 1.1745505159867964e+01 6.8920110293665990e+00 1.2448142632616022e+01 0 0 -1
1853 13 8 -8.4719999999999995e-01 1.0209157078436379e+01 7.4910774583044519e+00 1.1999747768340216e+01 0 -2 -1
5595 1261 7 4.2359999999999998e-01 1.3437912855385932e+01 8.6126071263948845e+00 8.2481088666895932e+00 0 3 0
1851 13 7 4.2359999999999998e-01 9.8662974862756663e+00 8.0591964111618903e+00 1.2747870871974275e+01 0 -2 -1
1960 49 7 4.2359999999999998e-01 1.3324060585356737e+01 7.0967812660947809e+00 1.2083645138959803e+01 0 0 -1
2885 357 8 -8.4719999999999995e-01 1.7027436894547299e-01 1.4700498123797889e+01 8.5613636210189252e+00 1 3 -1
4759 982 7 4.2359999999999998e-01 1.0902800400565722e+01 6.3517652046944428e-01 8.1419552803101176e+00 0 5 0
4318 835 7 4.2359999999999998e-01 9.3870588438143332e-01 2.0835219010832779e+00 1.7780053641253609e+01 0 0 0
4760 982 8 -8.4719999999999995e-01 1.1894601943045123e+01 5.1474067054085615e-01 8.0992360217447921e+00 0 5 0
2115 101 7 4.2359999999999998e-01 1.3615996915847328e+01 4.6854983022514087e+00 8.0848909080095659e+00 0 -1 -1
3931 706 7 4.2359999999999998e-01 1.1728160986242216e+01 4.1314360908189016e+00 1.1167465763522024e+01 0 0 0
4345 844 7 4.2359999999999998e-01 4.4554365036847985e+00 2.8005330192506350e+00 1.6570343115728374e+00 1 1 1
2215 134 7 4.2359999999999998e-01 1.1453959661085019e+01 1.3287297566377811e+01 1.6948290823943243e+01 0 -1 -1
3135 441 7 4.2359999999999998e-01 3.1207274559526342e-02 2.4521551800762866e+00 8.1504049148636888e+00 0 -2 -1
3932 706 8 -8.4719999999999995e-01 1.2541396016595851e+01 4.2903113182188353e+00 1.1727293875989702e+01 0 0 0
5192 1126 8 -8.4719999999999995e-01 1.3592208696788710e+01 3.9100696939541715e+00 1.5644742309185142e+01 0 -2 0
4534 907 7 4.2359999999999998e-01 2.4670069718803025e+00 9.6357006400157852e-01 8.3286413216350752e+00 1 0 0
3022 403 7 4.2359999999999998e-01 4.4778297563418619e+00 6.3674112528486337e-01 7.7798401477770849e+00 1 2 -1
5235 1141 7 4.2359999999999998e-01 8.9180865005049015e-01 6.0885706033273044e+00 1.1357017718948647e+01 0 1 0
5474 1220 8 -8.4719999999999995e-01 1.1419385013839749e+01 1.5533297407466485e+01 1.4486445969909255e+01 0 1 0
1941 43 7 4.2359999999999998e-01 8.4775560986120961e+00 1.5950022151610476e+01 1.3391701105040465e+01 -2 -2 -1
5786 1324 8 -8.4719999999999995e-01 4.3062862555332453e+00 1.0491169828777666e+01 1.1723445713660606e+01 0 -2 0
1890 26 7 4.2359999999999998e-01 1.3790241059015171e+00 1.1774857906674919e+01 1.2212692443234324e+01 0 4 -1
5784 1324 7 4.2359999999999998e-01 3.9175646179353558e+00 9.9159925880567865e+00 1.1003677239786221e+01 0 -2 0
4771 986 7 4.2359999999999998e-01 2.9088668879810586e+00 1.6618211747437837e+01 8.9621554980213691e+00 2 -4 0
1892 26 8 -8.4719999999999995e-01 1.9574105537114732e+00 1.1122231175747585e+01 1.2702129424619024e+01 0 4 -1
4421 869 8 -8.4719999999999995e-01 7.4003793245546501e-01 1.1857605586403153e+01 8.6554487513782163e+00 0 -1 0
3366 518 7 4.2359999999999998e-01 3.2658126246918626e+00 1.6749252506964172e+01 1.3240855132038920e+01 1 0 -1
5835 1341 7 4.2359999999999998e-01 3.4589691680879935e+00 1.3926023404288081e+01 1.0061760429161943e+01 1 -1 0
5836 1341 7 4.2359999999999998e-01 2.0734244406282403e+00 1.3729212020931545e+01 1.0903281786223564e+01 1 -1 0
5837 1341 8 -8.4719999999999995e-01 3.0441363582954257e+00 1.3959707136725212e+01 1.0971034696570774e+01 1 -1 0
5785 1324 7 4.2359999999999998e-01 3.5717462490958556e+00 1.0985864163088266e+01 1.2187911577334919e+01 0 -2 0
4482 890 7 4.2359999999999998e-01 1.1483812428498995e+01 1.6265430347569168e+01 1.7662705908123247e+01 1 -1 0
3726 638 7 4.2359999999999998e-01 3.1558769653075069e+00 1.0450612106120138e+01 8.4485142706096124e+00 1 3 -1