 running on   24 total cores
 distrk:  each k-point on   24 cores,    1 groups
 distr:  one band on    1 cores,   24 groups
 using from now: INCAR     
 vasp.5.4.4.18Apr17-6-g9f103f2a35 (build Apr 11 2019 18:12:45) complex          
  
 POSCAR found type information on POSCAR  C  Na
 POSCAR found :  2 types and      33 ions
 scaLAPACK will be used

 ----------------------------------------------------------------------------- 
|                                                                             |
|           W    W    AA    RRRRR   N    N  II  N    N   GGGG   !!!           |
|           W    W   A  A   R    R  NN   N  II  NN   N  G    G  !!!           |
|           W    W  A    A  R    R  N N  N  II  N N  N  G       !!!           |
|           W WW W  AAAAAA  RRRRR   N  N N  II  N  N N  G  GGG   !            |
|           WW  WW  A    A  R   R   N   NN  II  N   NN  G    G                |
|           W    W  A    A  R    R  N    N  II  N    N   GGGG   !!!           |
|                                                                             |
|      For optimal performance we recommend to set                            |
|        NCORE= 4 - approx SQRT( number of cores)                             |
|      NCORE specifies how many cores store one orbital (NPAR=cpu/NCORE).     |
|      This setting can  greatly improve the performance of VASP for DFT.     |
|      The default,   NCORE=1            might be grossly inefficient         |
|      on modern multi-core architectures or massively parallel machines.     |
|      Do your own testing !!!!                                               |
|      Unfortunately you need to use the default for GW and RPA calculations. |
|      (for HF NCORE is supported but not extensively tested yet)             |
|                                                                             |
 ----------------------------------------------------------------------------- 

 LDA part: xc-table for Pade appr. of Perdew
 found WAVECAR, reading the header
 POSCAR, INCAR and KPOINTS ok, starting setup
 FFT: planning ...
 reading WAVECAR
 the WAVECAR file was read successfully
 charge-density read from file: hBN                                     
 magnetization density read from file 1
 entering main loop
       N       E                     dE             d eps       ncg     rms          rms(c)
DAV:   1    -0.295801348397E+03   -0.29580E+03   -0.36134E-01  6648   0.643E-01    0.721E-01
DAV:   2    -0.294963370894E+03    0.83798E+00   -0.35343E-01  6144   0.901E-01    0.231E-01
DAV:   3    -0.295327318571E+03   -0.36395E+00   -0.10933E-01  6504   0.434E-01    0.241E-01
DAV:   4    -0.295580657917E+03   -0.25334E+00   -0.36400E-02  6480   0.276E-01    0.118E-01
DAV:   5    -0.295628074965E+03   -0.47417E-01   -0.10966E-02  6888   0.122E-01    0.133E-01
DAV:   6    -0.295672188809E+03   -0.44114E-01   -0.13724E-02  6672   0.145E-01    0.550E-02
DAV:   7    -0.295683850543E+03   -0.11662E-01   -0.17729E-03  6408   0.555E-02    0.527E-02
DAV:   8    -0.295698210878E+03   -0.14360E-01   -0.10911E-03  6048   0.405E-02    0.178E-02
DAV:   9    -0.295701615703E+03   -0.34048E-02   -0.14230E-04  5904   0.158E-02    0.831E-03
DAV:  10    -0.295702606921E+03   -0.99122E-03   -0.39932E-05  5232   0.867E-03    0.845E-03
DAV:  11    -0.295703400340E+03   -0.79342E-03   -0.46959E-05  5544   0.681E-03    0.409E-03
DAV:  12    -0.295703908370E+03   -0.50803E-03   -0.33686E-05  5472   0.541E-03    0.316E-03
DAV:  13    -0.295704203373E+03   -0.29500E-03   -0.22182E-05  5448   0.340E-03    0.263E-03
DAV:  14    -0.295704335573E+03   -0.13220E-03   -0.18079E-05  5136   0.415E-03    0.328E-03
DAV:  15    -0.295704286879E+03    0.48694E-04   -0.23276E-05  5760   0.484E-03
   1 F= -.29570429E+03 E0= -.29569595E+03  d E =-.295704E+03  mag=     0.3953
 curvature:   0.00 expect dE= 0.000E+00 dE for cont linesearch  0.000E+00
 trial: gam= 0.00000 g(F)=  0.140E-02 g(S)=  0.000E+00 ort = 0.000E+00 (trialstep = 0.100E+01)
 search vector abs. value=  0.140E-02
 ******************************
 ***ISIF             0  ****Zhiping
 ******************************
 ******************************
 ***ISIF             0  ****Zhiping
 ******************************
 ******************************
 ***ISIF             0  ****Zhiping
 ******************************
 ******************************
 ***ISIF             0  ****Zhiping
 ******************************
 ******************************
 ***ISIF             0  ****Zhiping
 ******************************
 ******************************
 ***ISIF             0  ****Zhiping
 ******************************
 ******************************
 ***ISIF             0  ****Zhiping
 ******************************
 ******************************
 ***ISIF             0  ****Zhiping
 ******************************
 ******************************
 ***ISIF             0  ****Zhiping
 ******************************
 ******************************
 ***ISIF             0  ****Zhiping
 ******************************
 ******************************
 ***ISIF             0  ****Zhiping
 ******************************
 ******************************
 ***ISIF             0  ****Zhiping
 ******************************
 ******************************
 ***ISIF             0  ****Zhiping
 ******************************
 ******************************
 ***ISIF             0  ****Zhiping
 ******************************
 ******************************
 ***ISIF             0  ****Zhiping
 ******************************
 ******************************
 ***ISIF             0  ****Zhiping
 ******************************
 ******************************
 ***ISIF             0  ****Zhiping
 ******************************
 ******************************
 ***ISIF             0  ****Zhiping
 ******************************
 ******************************
 ***ISIF             0  ****Zhiping
 ******************************
 ******************************
 ******************************
 ***ISIF             0  ****Zhiping
 ******************************
 ***ISIF             0  ****Zhiping
 ******************************
 ******************************
 ***ISIF             0  ****Zhiping
 ******************************
 ******************************
 ***ISIF             0  ****Zhiping
 ******************************
 bond charge predicted
       N       E                     dE             d eps       ncg     rms          rms(c)
DAV:   1    -0.295704349128E+03   -0.13555E-04   -0.16968E-01  6240   0.110E+00    0.624E-02
DAV:   2    -0.295703790361E+03    0.55877E-03   -0.35599E-03  6432   0.152E-01    0.464E-02
DAV:   3    -0.295703725067E+03    0.65294E-04   -0.59151E-04  6072   0.542E-02
 ******************************
 ******************************
 ***ISIF             0  ****Zhiping
 ******************************
 ******************************
 ***ISIF             0  ****Zhiping
 ******************************
 ******************************
 ******************************
 ******************************
   2 F= -.29570373E+03 E0= -.29569540E+03  d E =0.561812E-03  mag=     0.3972
 ******************************
 ******************************
 ******************************
 ***ISIF             0  ****Zhiping
 ******************************
 ***ISIF             0  ****Zhiping
 ******************************
 ******************************
 ***ISIF             0  ****Zhiping
 ******************************
 ******************************
 ***ISIF             0  ****Zhiping
 ******************************
 ***ISIF             0  ****Zhiping
 ******************************
 ******************************
 ******************************
 ******************************
 ******************************
 ***ISIF             0  ****Zhiping
 ******************************
 ******************************
 ***ISIF             0  ****Zhiping
 ******************************
 ******************************
 ******************************
 ***ISIF             0  ****Zhiping
 ******************************
 ******************************
 ***ISIF             0  ****Zhiping
 ***ISIF             0  ****Zhiping
 ******************************
 ******************************
 ******************************
 ***ISIF             0  ****Zhiping
 ******************************
 ***ISIF             0  ****Zhiping
 ******************************
 ******************************
 ******************************
 ***ISIF             0  ****Zhiping
 ******************************
 ***ISIF             0  ****Zhiping
 ***ISIF             0  ****Zhiping
 ******************************
 ***ISIF             0  ****Zhiping
 ******************************
 ***ISIF             0  ****Zhiping
 ******************************
 ***ISIF             0  ****Zhiping
 ******************************
 ******************************
 ***ISIF             0  ****Zhiping
 ******************************
 ******************************
 ***ISIF             0  ****Zhiping
 ******************************
 ***ISIF             0  ****Zhiping
 ******************************
 trial-energy change:    0.000562  1 .order   -0.000082   -0.001398    0.001234
 step:   0.5313(harm=  0.5313)  dis= 0.00164  next Energy=  -295.704658 (dE=-0.371E-03)
 bond charge predicted
       N       E                     dE             d eps       ncg     rms          rms(c)
DAV:   1    -0.295704419543E+03   -0.62918E-03   -0.37258E-02  6264   0.515E-01    0.257E-02
DAV:   2    -0.295704319926E+03    0.99616E-04   -0.81189E-04  6240   0.725E-02
 ******************************
 ******************************
 ***ISIF             0  ****Zhiping
 ******************************
 ******************************
 ******************************
 ******************************
 ******************************
 ***ISIF             0  ****Zhiping
 ******************************
 ******************************
 ******************************
 ******************************
 ******************************
 ******************************
 ******************************
 ******************************
 ***ISIF             0  ****Zhiping
 ******************************
 ******************************
 ******************************
 ***ISIF             0  ****Zhiping
 ******************************
 ***ISIF             0  ****Zhiping
 ***ISIF             0  ****Zhiping
 ******************************
 ***ISIF             0  ****Zhiping
 ******************************
 ******************************
 ******************************
 ***ISIF             0  ****Zhiping
 ******************************
 ******************************
 ***ISIF             0  ****Zhiping
 ******************************
 ***ISIF             0  ****Zhiping
 ******************************
 ***ISIF             0  ****Zhiping
 ******************************
 ******************************
 ******************************
 ***ISIF             0  ****Zhiping
 ******************************
 ***ISIF             0  ****Zhiping
 ******************************
 ***ISIF             0  ****Zhiping
 ******************************
 ******************************
 ***ISIF             0  ****Zhiping
 ******************************
 ******************************
 ******************************
 ***ISIF             0  ****Zhiping
 ******************************
 ***ISIF             0  ****Zhiping
 ******************************
 ***ISIF             0  ****Zhiping
 ******************************
 ***ISIF             0  ****Zhiping
 ******************************
 ***ISIF             0  ****Zhiping
 ******************************
 ******************************
 ***ISIF             0  ****Zhiping
 ******************************
 ***ISIF             0  ****Zhiping
 ******************************
 ***ISIF             0  ****Zhiping
 ******************************
   3 F= -.29570432E+03 E0= -.29569599E+03  d E =-.330469E-04  mag=     0.3966
 curvature:  -0.27 expect dE=-0.436E-03 dE for cont linesearch -0.116E-05
 trial: gam= 1.11703 g(F)=  0.164E-02 g(S)=  0.000E+00 ort = 0.780E-04 (trialstep = 0.356E+00)
 search vector abs. value=  0.356E-02
 bond charge predicted
       N       E                     dE             d eps       ncg     rms          rms(c)
DAV:   1    -0.295705102192E+03   -0.68265E-03   -0.61924E-02  5952   0.592E-01    0.321E-02
DAV:   2    -0.295704566322E+03    0.53587E-03   -0.15872E-03  6120   0.865E-02    0.224E-02
DAV:   3    -0.295704654476E+03   -0.88154E-04   -0.38749E-04  6096   0.326E-02
 ******************************
 ******************************
 ***ISIF             0  ****Zhiping
 ******************************
 ******************************
 ******************************
 ******************************
 ******************************
 ***ISIF             0  ****Zhiping
 ******************************
 ******************************
 ***ISIF             0  ****Zhiping
 ******************************
 ******************************
 ***ISIF             0  ****Zhiping
 ******************************
 ******************************
 ***ISIF             0  ****Zhiping
 ******************************
 ******************************
 ******************************
 ******************************
 ******************************
 ***ISIF             0  ****Zhiping
 ******************************
 ******************************
 ******************************
 ***ISIF             0  ****Zhiping
 ******************************
 ******************************
 ******************************
 ***ISIF             0  ****Zhiping
 ***ISIF             0  ****Zhiping
 ******************************
 ******************************
 ***ISIF             0  ****Zhiping
 ******************************
 ***ISIF             0  ****Zhiping
 ******************************
 ***ISIF             0  ****Zhiping
 ******************************
 ******************************
 ******************************
 ***ISIF             0  ****Zhiping
 ***ISIF             0  ****Zhiping
 ******************************
 ******************************
 ***ISIF             0  ****Zhiping
 ******************************
 ******************************
 ***ISIF             0  ****Zhiping
 ******************************
 ******************************
 ***ISIF             0  ****Zhiping
 ******************************
 ***ISIF             0  ****Zhiping
 ******************************
 ******************************
 ***ISIF             0  ****Zhiping
 ******************************
 ***ISIF             0  ****Zhiping
 ******************************
 ******************************
 ***ISIF             0  ****Zhiping
 ******************************
 ***ISIF             0  ****Zhiping
 ******************************
 ***ISIF             0  ****Zhiping
 ******************************
   4 F= -.29570465E+03 E0= -.29569633E+03  d E =-.334550E-03  mag=     0.3981
 trial-energy change:   -0.000335  1 .order   -0.000459   -0.000615   -0.000302
 step:   0.6998(harm=  0.6998)  dis= 0.00488  next Energy=  -295.704924 (dE=-0.604E-03)
 reached required accuracy - stopping structural energy minimisation
 writing wavefunctions
Job  /jobmgr/lsf8.0/8.0/linux2.6-glibc2.3-x86_64/bin/intelmpi_wrapper -np 24 /home/xuzp/bin/vasp.5.4.4.std

TID   HOST_NAME   COMMAND_LINE            STATUS            TERMINATION_TIME
===== ========== ================  =======================  ===================
00000 c20b20     /home/xuzp/bin/v  Done                     08/02/2019 22:13:06
00001 c20b20     /home/xuzp/bin/v  Done                     08/02/2019 22:13:06
00002 c20b20     /home/xuzp/bin/v  Done                     08/02/2019 22:13:06
00003 c20b20     /home/xuzp/bin/v  Done                     08/02/2019 22:13:06
00004 c20b20     /home/xuzp/bin/v  Done                     08/02/2019 22:13:06
00005 c20b20     /home/xuzp/bin/v  Done                     08/02/2019 22:13:06
00006 c20b20     /home/xuzp/bin/v  Done                     08/02/2019 22:13:06
00007 c20b20     /home/xuzp/bin/v  Done                     08/02/2019 22:13:06
00008 c20b20     /home/xuzp/bin/v  Done                     08/02/2019 22:13:06
00009 c20b20     /home/xuzp/bin/v  Done                     08/02/2019 22:13:06
00010 c20b20     /home/xuzp/bin/v  Done                     08/02/2019 22:13:06
00011 c20b20     /home/xuzp/bin/v  Done                     08/02/2019 22:13:06
00012 c25b19     /home/xuzp/bin/v  Done                     08/02/2019 22:15:27
00013 c25b19     /home/xuzp/bin/v  Done                     08/02/2019 22:15:27
00014 c25b19     /home/xuzp/bin/v  Done                     08/02/2019 22:15:27
00015 c25b19     /home/xuzp/bin/v  Done                     08/02/2019 22:15:27
00016 c25b19     /home/xuzp/bin/v  Done                     08/02/2019 22:15:27
00017 c25b19     /home/xuzp/bin/v  Done                     08/02/2019 22:15:27
00018 c25b19     /home/xuzp/bin/v  Done                     08/02/2019 22:15:27
00019 c25b19     /home/xuzp/bin/v  Done                     08/02/2019 22:15:27
00020 c25b19     /home/xuzp/bin/v  Done                     08/02/2019 22:15:27
00021 c25b19     /home/xuzp/bin/v  Done                     08/02/2019 22:15:27
00022 c25b19     /home/xuzp/bin/v  Done                     08/02/2019 22:15:27
00023 c25b19     /home/xuzp/bin/v  Done                     08/02/2019 22:15:27
