 vasp.5.4.4.18Apr17-6-g9f103f2a35 (build Apr 11 2019 18:12:45) complex          
  
 executed on             LinuxIFC date 2019.08.02  21:56:22
 running on   24 total cores
 distrk:  each k-point on   24 cores,    1 groups
 distr:  one band on NCORES_PER_BAND=   1 cores,   24 groups


--------------------------------------------------------------------------------------------------------


 INCAR:
 POTCAR:   PAW_PBE C 08Apr2002                    
 POTCAR:    PAW_PBE Na_pv 19Sep2006               

 ----------------------------------------------------------------------------- 
|                                                                             |
|           W    W    AA    RRRRR   N    N  II  N    N   GGGG   !!!           |
|           W    W   A  A   R    R  NN   N  II  NN   N  G    G  !!!           |
|           W    W  A    A  R    R  N N  N  II  N N  N  G       !!!           |
|           W WW W  AAAAAA  RRRRR   N  N N  II  N  N N  G  GGG   !            |
|           WW  WW  A    A  R   R   N   NN  II  N   NN  G    G                |
|           W    W  A    A  R    R  N    N  II  N    N   GGGG   !!!           |
|                                                                             |
|      For optimal performance we recommend to set                            |
|        NCORE= 4 - approx SQRT( number of cores)                             |
|      NCORE specifies how many cores store one orbital (NPAR=cpu/NCORE).     |
|      This setting can  greatly improve the performance of VASP for DFT.     |
|      The default,   NCORE=1            might be grossly inefficient         |
|      on modern multi-core architectures or massively parallel machines.     |
|      Do your own testing !!!!                                               |
|      Unfortunately you need to use the default for GW and RPA calculations. |
|      (for HF NCORE is supported but not extensively tested yet)             |
|                                                                             |
 ----------------------------------------------------------------------------- 

 POTCAR:   PAW_PBE C 08Apr2002                    
   VRHFIN =C: s2p2                                                              
   LEXCH  = PE                                                                  
   EATOM  =   147.1560 eV,   10.8157 Ry                                         
                                                                                
   TITEL  = PAW_PBE C 08Apr2002                                                 
   LULTRA =        F    use ultrasoft PP ?                                      
   IUNSCR =        0    unscreen: 0-lin 1-nonlin 2-no                           
   RPACOR =     .000    partial core radius                                     
   POMASS =   12.011; ZVAL   =    4.000    mass and valenz                      
   RCORE  =    1.500    outmost cutoff radius                                   
   RWIGS  =    1.630; RWIGS  =     .863    wigner-seitz radius (au A)           
   ENMAX  =  400.000; ENMIN  =  300.000 eV                                      
   ICORE  =        2    local potential                                         
   LCOR   =        T    correct aug charges                                     
   LPAW   =        T    paw PP                                                  
   EAUG   =  644.873                                                            
   DEXC   =     .000                                                            
   RMAX   =    2.266    core radius for proj-oper                               
   RAUG   =    1.300    factor for augmentation sphere                          
   RDEP   =    1.501    radius for radial grids                                 
   RDEPT  =    1.300    core radius for aug-charge                              
   QCUT   =   -5.516; QGAM   =   11.032    optimization parameters              
                                                                                
   Description                                                                  
     l     E      TYP  RCUT    TYP  RCUT                                        
     0   .000     23  1.200                                                     
     0   .000     23  1.200                                                     
     1   .000     23  1.500                                                     
     1  2.500     23  1.500                                                     
     2   .000      7  1.500                                                     
  local pseudopotential read in
  atomic valenz-charges read in
  non local Contribution for L=           0  read in
    real space projection operators read in
  non local Contribution for L=           0  read in
    real space projection operators read in
  non local Contribution for L=           1  read in
    real space projection operators read in
  non local Contribution for L=           1  read in
    real space projection operators read in
    PAW grid and wavefunctions read in
 
   number of l-projection  operators is LMAX  =           4
   number of lm-projection operators is LMMAX =           8
 
 POTCAR:    PAW_PBE Na_pv 19Sep2006               
   VRHFIN =Na: p6s1                                                             
   LEXCH  = PE                                                                  
   EATOM  =   766.0439 eV,   56.3026 Ry                                         
                                                                                
   TITEL  = PAW_PBE Na_pv 19Sep2006                                             
   LULTRA =        F    use ultrasoft PP ?                                      
   IUNSCR =        1    unscreen: 0-lin 1-nonlin 2-no                           
   RPACOR =    1.800    partial core radius                                     
   POMASS =   22.990; ZVAL   =    7.000    mass and valenz                      
   RCORE  =    2.200    outmost cutoff radius                                   
   RWIGS  =    2.200; RWIGS  =    1.164    wigner-seitz radius (au A)           
   ENMAX  =  259.561; ENMIN  =  194.671 eV                                      
   ICORE  =        2    local potential                                         
   LCOR   =        T    correct aug charges                                     
   LPAW   =        T    paw PP                                                  
   EAUG   =  368.056                                                            
   DEXC   =     .000                                                            
   RMAX   =    2.862    core radius for proj-oper                               
   RAUG   =    1.300    factor for augmentation sphere                          
   RDEP   =    2.259    radius for radial grids                                 
   QCUT   =   -4.368; QGAM   =    8.735    optimization parameters              
                                                                                
   Description                                                                  
     l     E      TYP  RCUT    TYP  RCUT                                        
     1   .000     23  2.000                                                     
     1   .500     23  2.000                                                     
     0   .000     23  2.200                                                     
     0  2.500     23  2.200                                                     
     2  -.100     23  2.200                                                     
  local pseudopotential read in
  partial core-charges read in
  atomic valenz-charges read in
  non local Contribution for L=           1  read in
    real space projection operators read in
  non local Contribution for L=           1  read in
    real space projection operators read in
  non local Contribution for L=           0  read in
    real space projection operators read in
  non local Contribution for L=           0  read in
    real space projection operators read in
    PAW grid and wavefunctions read in
 
   number of l-projection  operators is LMAX  =           4
   number of lm-projection operators is LMMAX =           8
 
 Optimization of the real space projectors (new method)

 maximal supplied QI-value         = 25.13
 optimisation between [QCUT,QGAM] = [ 11.31, 28.40] = [ 35.82,225.87] Ry 
 Optimized for a Real-space Cutoff    0.93 Angstroem

   l    n(q)    QCUT    max X(q) W(low)/X(q) W(high)/X(q)  e(spline) 
   0      8    11.310     5.582    0.36E-04    0.13E-04    0.14E-07
   0      8    11.310    69.432    0.28E-03    0.21E-03    0.11E-06
   1      7    11.310     2.780    0.37E-04    0.49E-04    0.22E-07
   1      7    11.310     4.549    0.27E-03    0.38E-03    0.91E-07
 Optimization of the real space projectors (new method)

 maximal supplied QI-value         = 17.01
 optimisation between [QCUT,QGAM] = [ 11.40, 28.57] = [ 36.36,228.61] Ry 
 Optimized for a Real-space Cutoff    1.25 Angstroem

   l    n(q)    QCUT    max X(q) W(low)/X(q) W(high)/X(q)  e(spline) 
   1     10    11.395     4.977    0.23E-05    0.17E-05    0.20E-07
   1     10    11.395     7.312    0.34E-03    0.16E-03    0.87E-06
   0     11    11.395    36.258    0.15E-04    0.97E-06    0.30E-07
   0     11    11.395    45.649    0.12E-04    0.89E-05    0.80E-07
 PAW_PBE C 08Apr2002                    :
 energy of atom  1       EATOM= -147.1560
 kinetic energy error for atom=    0.0076 (will be added to EATOM!!)
  PAW_PBE Na_pv 19Sep2006               :
 energy of atom  2       EATOM= -766.0439
 kinetic energy error for atom=    0.0021 (will be added to EATOM!!)
 
 
 POSCAR: graphene+K                              
  positions in direct lattice
  velocities in cartesian coordinates
 exchange correlation table for  LEXCH =        8
   RHO(1)=    0.500       N(1)  =     2000
   RHO(2)=  100.500       N(2)  =     4000
 


--------------------------------------------------------------------------------------------------------


 ion  position               nearest neighbor table
   1  0.166  0.083  0.500-  29 1.42  18 1.42  17 1.42
   2  0.416  0.083  0.500-  30 1.42  19 1.43  18 1.43
   3  0.667  0.083  0.500-  31 1.42  19 1.42  20 1.42
   4  0.917  0.083  0.500-  32 1.42  17 1.42  20 1.42
   5  0.166  0.333  0.500-  21 1.42  22 1.42  17 1.42
   6  0.416  0.333  0.500-  18 1.43  22 1.43  23 1.43
   7  0.667  0.333  0.500-  19 1.43  24 1.43  23 1.43
   8  0.917  0.333  0.500-  21 1.42  24 1.42  20 1.42
   9  0.167  0.583  0.500-  21 1.42  26 1.42  25 1.42
  10  0.416  0.584  0.500-  26 1.42  22 1.43  27 1.43
  11  0.667  0.584  0.500-  28 1.43  27 1.43  23 1.43
  12  0.917  0.584  0.500-  25 1.42  24 1.43  28 1.43
  13  0.167  0.833  0.500-  29 1.42  25 1.42  30 1.42
  14  0.417  0.833  0.500-  31 1.42  26 1.42  30 1.42
  15  0.667  0.834  0.500-  31 1.42  27 1.42  32 1.42
  16  0.917  0.834  0.500-  29 1.42  28 1.42  32 1.42
  17  0.083  0.167  0.500-   4 1.42   5 1.42   1 1.42
  18  0.333  0.166  0.500-   1 1.42   2 1.43   6 1.43
  19  0.583  0.166  0.500-   3 1.42   2 1.43   7 1.43
  20  0.833  0.167  0.500-   4 1.42   8 1.42   3 1.42
  21  0.083  0.417  0.500-   8 1.42   5 1.42   9 1.42
  22  0.333  0.417  0.500-   5 1.42  10 1.43   6 1.43
  23  0.583  0.417  0.499-  11 1.43   6 1.43   7 1.43
  24  0.834  0.417  0.500-   8 1.42  12 1.43   7 1.43
  25  0.084  0.667  0.500-  12 1.42  13 1.42   9 1.42
  26  0.333  0.667  0.500-  10 1.42  14 1.42   9 1.42
  27  0.583  0.667  0.500-  15 1.42  10 1.43  11 1.43
  28  0.834  0.667  0.500-  16 1.42  12 1.43  11 1.43
  29  0.083  0.917  0.500-   1 1.42  16 1.42  13 1.42
  30  0.333  0.916  0.500-   2 1.42  13 1.42  14 1.42
  31  0.583  0.917  0.500-   3 1.42  15 1.42  14 1.42
  32  0.833  0.917  0.500-   4 1.42  15 1.42  16 1.42
  33  0.583  0.417  0.666-
 
  LATTYP: Found a hexagonal cell.
 ALAT       =     9.8742347976
 C/A-ratio  =     1.5191050555
  
  Lattice vectors:
  
 A1 = (   9.8742347986,   0.0000000000,   0.0000000000)
 A2 = (  -4.9371173993,   8.5513381774,   0.0000000000)
 A3 = (   0.0000000000,   0.0000000000,  15.0000000000)


Analysis of symmetry for initial positions (statically):
=====================================================================
 Subroutine PRICEL returns:
 Original cell was already a primitive cell.
 

 Routine SETGRP: Setting up the symmetry group for a 
 hexagonal supercell.


 Subroutine GETGRP returns: Found  6 space group operations
 (whereof  2 operations were pure point group operations)
 out of a pool of 24 trial point group operations.


The static configuration has the point symmetry C_1h.
 The point group associated with its full space group is C_3v.


Analysis of symmetry for dynamics (positions and initial velocities):
=====================================================================
 Subroutine PRICEL returns:
 Original cell was already a primitive cell.
 

 Routine SETGRP: Setting up the symmetry group for a 
 hexagonal supercell.


 Subroutine GETGRP returns: Found  6 space group operations
 (whereof  2 operations were pure point group operations)
 out of a pool of 24 trial point group operations.


The dynamic configuration has the point symmetry C_1h.
 The point group associated with its full space group is C_3v.


Analysis of constrained symmetry for selective dynamics:
=====================================================================
 Subroutine PRICEL returns:
 Original cell was already a primitive cell.
 

 Routine SETGRP: Setting up the symmetry group for a 
 hexagonal supercell.


 Subroutine GETGRP returns: Found  6 space group operations
 (whereof  2 operations were pure point group operations)
 out of a pool of 24 trial point group operations.


The constrained configuration has the point symmetry C_1h.
 The point group associated with its full space group is C_3v.


Analysis of structural, dynamic, and magnetic symmetry:
=====================================================================
 Subroutine PRICEL returns:
 Original cell was already a primitive cell.
 

 Routine SETGRP: Setting up the symmetry group for a 
 hexagonal supercell.


 Subroutine GETGRP returns: Found  6 space group operations
 (whereof  2 operations were pure point group operations)
 out of a pool of 24 trial point group operations.


The magnetic configuration has the point symmetry C_1h.
 The point group associated with its full space group is C_3v.


 Subroutine INISYM returns: Found  6 space group operations
 (whereof  2 operations are pure point group operations),
 and found     1 'primitive' translations

 
 
 KPOINTS: Automatic mesh                          

Automatic generation of k-mesh.
Space group operators:
 irot       det(A)        alpha          n_x          n_y          n_z        tau_x        tau_y        tau_z
    1     1.000000     0.000001     1.000000     0.000000     0.000000     0.000000     0.000000     0.000000
    2    -1.000000   180.000000    -0.500000    -0.866025     0.000000     0.000000     0.000000     0.000000
    3     1.000000   120.000000     0.000000     0.000000    -1.000000     0.000000     0.250000     0.000000
    4     1.000000   120.000000     0.000000     0.000000     1.000000     0.750000     0.000000     0.000000
    5    -1.000000   180.000000     1.000000     0.000000     0.000000     0.750000     0.000000     0.000000
    6    -1.000000   180.000000     0.500000    -0.866025     0.000000     0.000000     0.250000     0.000000
 
 Subroutine IBZKPT returns following result:
 ===========================================
 
 Found     12 irreducible k-points:
 
 Following reciprocal coordinates:
            Coordinates               Weight
  0.000000  0.000000  0.000000      1.000000
  0.111111  0.000000  0.000000      6.000000
  0.222222  0.000000  0.000000      6.000000
  0.333333  0.000000  0.000000      6.000000
  0.444444  0.000000  0.000000      6.000000
  0.111111  0.111111  0.000000      6.000000
  0.222222  0.111111  0.000000     12.000000
  0.333333  0.111111  0.000000     12.000000
  0.444444  0.111111  0.000000      6.000000
  0.222222  0.222222  0.000000      6.000000
  0.333333  0.222222  0.000000     12.000000
  0.333333  0.333333  0.000000      2.000000
 
 Following cartesian coordinates:
            Coordinates               Weight
  0.000000  0.000000  0.000000      1.000000
  0.011253  0.006497  0.000000      6.000000
  0.022505  0.012993  0.000000      6.000000
  0.033758  0.019490  0.000000      6.000000
  0.045011  0.025987  0.000000      6.000000
  0.011253  0.019490  0.000000      6.000000
  0.022505  0.025987  0.000000     12.000000
  0.033758  0.032484  0.000000     12.000000
  0.045011  0.038980  0.000000      6.000000
  0.022505  0.038980  0.000000      6.000000
  0.033758  0.045477  0.000000     12.000000
  0.033758  0.058470  0.000000      2.000000
 


--------------------------------------------------------------------------------------------------------




 Dimension of arrays:
   k-points           NKPTS =     12   k-points in BZ     NKDIM =     12   number of bands    NBANDS=    120
   number of dos      NEDOS =    301   number of ions     NIONS =     33
   non local maximal  LDIM  =      4   non local SUM 2l+1 LMDIM =      8
   total plane-waves  NPLWV = 580608
   max r-space proj   IRMAX =   3812   max aug-charges    IRDMAX=   5891
   dimension x,y,z NGX =    72 NGY =   72 NGZ =  112
   dimension x,y,z NGXF=   112 NGYF=  112 NGZF=  168
   support grid    NGXF=   112 NGYF=  112 NGZF=  168
   ions per type =              32   1
   NGX,Y,Z   is equivalent  to a cutoff of  12.12, 12.12, 12.41 a.u.
   NGXF,Y,Z  is equivalent  to a cutoff of  18.86, 18.86, 18.62 a.u.

 SYSTEM =  hBN                                     
 POSCAR =  graphene+K                              

 Startparameter for this run:
   NWRITE =      2    write-flag & timer
   PREC   = high      normal or accurate (medium, high low for compatibility)
   ISTART =      1    job   : 0-new  1-cont  2-samecut
   ICHARG =      1    charge: 1-file 2-atom 10-const
   ISPIN  =      2    spin polarized calculation?
   LNONCOLLINEAR =      F non collinear calculations
   LSORBIT =      F    spin-orbit coupling
   INIWAV =      1    electr: 0-lowe 1-rand  2-diag
   LASPH  =      F    aspherical Exc in radial PAW
   METAGGA=      F    non-selfconsistent MetaGGA calc.

 Electronic Relaxation 1
   ENCUT  =  500.0 eV  36.75 Ry    6.06 a.u.  18.00 18.00 27.35*2*pi/ulx,y,z
   ENINI  =  500.0     initial cutoff
   ENAUG  =  644.9 eV  augmentation charge cutoff
   NELM   =    200;   NELMIN=  2; NELMDL=  0     # of ELM steps 
   EDIFF  = 0.1E-03   stopping-criterion for ELM
   LREAL  =      T    real-space projection
   NLSPLINE    = F    spline interpolate recip. space projectors
   LCOMPAT=      F    compatible to vasp.4.4
   GGA_COMPAT  = T    GGA compatible to vasp.4.4-vasp.4.6
   LMAXPAW     = -100 max onsite density
   LMAXMIX     =    2 max onsite mixed and CHGCAR
   VOSKOWN=      0    Vosko Wilk Nusair interpolation
   ROPT   =   -0.00040  -0.00040
 Ionic relaxation
   EDIFFG = -.5E-01   stopping-criterion for IOM
   NSW    =    500    number of steps for IOM
   NBLOCK =      1;   KBLOCK =    500    inner block; outer block 
   IBRION =      2    ionic relax: 0-MD 1-quasi-New 2-CG
   NFREE  =      1    steps in history (QN), initial steepest desc. (CG)
   ISIF   =      2    stress and relaxation
   IWAVPR =     11    prediction:  0-non 1-charg 2-wave 3-comb
   ISYM   =      2    0-nonsym 1-usesym 2-fastsym
   LCORR  =      T    Harris-Foulkes like correction to forces

   POTIM  = 0.5000    time-step for ionic-motion
   TEIN   =    0.0    initial temperature
   TEBEG  =    0.0;   TEEND  =   0.0 temperature during run
   SMASS  =  -3.00    Nose mass-parameter (am)
   estimated Nose-frequenzy (Omega)   =  0.10E-29 period in steps =****** mass=  -0.223E-26a.u.
   SCALEE = 1.0000    scale energy and forces
   NPACO  =    256;   APACO  = 16.0  distance and # of slots for P.C.
   PSTRESS=    0.0 pullay stress

  Mass of Ions in am
   POMASS =  12.01 22.99
  Ionic Valenz
   ZVAL   =   4.00  7.00
  Atomic Wigner-Seitz radii
   RWIGS  =  -1.00 -1.00
  virtual crystal weights 
   VCA    =   1.00  1.00
   NELECT =     135.0000    total number of electrons
   NUPDOWN=      -1.0000    fix difference up-down

 DOS related values:
   EMIN   =  10.00;   EMAX   =-10.00  energy-range for DOS
   EFERMI =   0.00
   ISMEAR =     0;   SIGMA  =   0.05  broadening in eV -4-tet -1-fermi 0-gaus

 Electronic relaxation 2 (details)
   IALGO  =     38    algorithm
   LDIAG  =      T    sub-space diagonalisation (order eigenvalues)
   LSUBROT=      F    optimize rotation matrix (better conditioning)
   TURBO    =      0    0=normal 1=particle mesh
   IRESTART =      0    0=no restart 2=restart with 2 vectors
   NREBOOT  =      0    no. of reboots
   NMIN     =      0    reboot dimension
   EREF     =   0.00    reference energy to select bands
   IMIX   =      4    mixing-type and parameters
     AMIX     =   0.40;   BMIX     =  1.00
     AMIX_MAG =   1.60;   BMIX_MAG =  1.00
     AMIN     =   0.10
     WC   =   100.;   INIMIX=   1;  MIXPRE=   1;  MAXMIX= -45

 Intra band minimization:
   WEIMIN = 0.0010     energy-eigenvalue tresh-hold
   EBREAK =  0.21E-06  absolut break condition
   DEPER  =   0.30     relativ break condition  

   TIME   =   0.40     timestep for ELM

  volume/ion in A,a.u.               =      38.38       259.01
  Fermi-wavevector in a.u.,A,eV,Ry     =   0.776205  1.466815  8.197433  0.602494
  Thomas-Fermi vector in A             =   1.878634
 
 Write flags
   LWAVE        =      T    write WAVECAR
   LDOWNSAMPLE  =      F    k-point downsampling of WAVECAR
   LCHARG       =      T    write CHGCAR
   LVTOT        =      F    write LOCPOT, total local potential
   LVHAR        =      F    write LOCPOT, Hartree potential only
   LELF         =      F    write electronic localiz. function (ELF)
   LORBIT       =      0    0 simple, 1 ext, 2 COOP (PROOUT), +10 PAW based schemes


 Dipole corrections
   LMONO  =      F    monopole corrections only (constant potential shift)
   LDIPOL =      T    correct potential (dipole corrections)
   IDIPOL =      3    1-x, 2-y, 3-z, 4-all directions 
   EPSILON=  1.0000000 bulk dielectric constant

 Exchange correlation treatment:
   GGA     =    --    GGA type
   LEXCH   =     8    internal setting for exchange type
   VOSKOWN=      0    Vosko Wilk Nusair interpolation
   LHFCALC =     F    Hartree Fock is set to
   LHFONE  =     F    Hartree Fock one center treatment
   AEXX    =    0.0000 exact exchange contribution

 Linear response parameters
   LEPSILON=     F    determine dielectric tensor
   LRPA    =     F    only Hartree local field effects (RPA)
   LNABLA  =     F    use nabla operator in PAW spheres
   LVEL    =     F    velocity operator in full k-point grid
   LINTERFAST=   F  fast interpolation
   KINTER  =     0    interpolate to denser k-point grid
   CSHIFT  =0.1000    complex shift for real part using Kramers Kronig
   OMEGAMAX=  -1.0    maximum frequency
   DEG_THRESHOLD= 0.2000000E-02 threshold for treating states as degnerate
   RTIME   =   -0.100 relaxation time in fs
  (WPLASMAI=    0.000 imaginary part of plasma frequency in eV, 0.658/RTIME)
   DFIELD  = 0.0000000 0.0000000 0.0000000 field for delta impulse in time
 
 Orbital magnetization related:
   ORBITALMAG=     F  switch on orbital magnetization
   LCHIMAG   =     F  perturbation theory with respect to B field
   DQ        =  0.001000  dq finite difference perturbation B field
   LLRAUG    =     F  two centre corrections for induced B field



--------------------------------------------------------------------------------------------------------


 conjugate gradient relaxation of ions
   using selective dynamics as specified on POSCAR
 charge density and potential will be updated during run
 spin polarized calculation
 Variant of blocked Davidson
 Davidson routine will perform the subspace rotation
 perform sub-space diagonalisation
    after iterative eigenvector-optimisation
 modified Broyden-mixing scheme, WC =      100.0
 initial mixing is a Kerker type mixing with AMIX =  0.4000 and BMIX =      1.0000
 Hartree-type preconditioning will be used
 using additional bands           52
 real space projection scheme for non local part
 use partial core corrections
 calculate Harris-corrections to forces 
   (improved forces if not selfconsistent)
 use gradient corrections 
 use of overlap-Matrix (Vanderbilt PP)
 Gauss-broadening in eV      SIGMA  =   0.05


--------------------------------------------------------------------------------------------------------


  energy-cutoff  :      500.00
  volume of cell :     1266.57
      direct lattice vectors                 reciprocal lattice vectors
     9.874234799  0.000000000  0.000000000     0.101273670  0.058470381  0.000000000
    -4.937117399  8.551338177  0.000000000     0.000000000  0.116940762  0.000000000
     0.000000000  0.000000000 15.000000000     0.000000000  0.000000000  0.066666667

  length of vectors
     9.874234799  9.874234798 15.000000000     0.116940762  0.116940762  0.066666667


 
 old parameters found on file WAVECAR:
  energy-cutoff  :      500.00
  volume of cell :     1266.57
      direct lattice vectors                 reciprocal lattice vectors
     9.874234799  0.000000000  0.000000000     0.101273670  0.058470381  0.000000000
    -4.937117399  8.551338177  0.000000000     0.000000000  0.116940762  0.000000000
     0.000000000  0.000000000 15.000000000     0.000000000  0.000000000  0.066666667

  length of vectors

 
 k-points in units of 2pi/SCALE and weight: Automatic mesh                          
   0.00000000  0.00000000  0.00000000       0.012
   0.01125263  0.00649671  0.00000000       0.074
   0.02250526  0.01299342  0.00000000       0.074
   0.03375789  0.01949013  0.00000000       0.074
   0.04501052  0.02598684  0.00000000       0.074
   0.01125263  0.01949013  0.00000000       0.074
   0.02250526  0.02598684  0.00000000       0.148
   0.03375789  0.03248354  0.00000000       0.148
   0.04501052  0.03898025  0.00000000       0.074
   0.02250526  0.03898025  0.00000000       0.074
   0.03375789  0.04547696  0.00000000       0.148
   0.03375789  0.05847038  0.00000000       0.025
 
 k-points in reciprocal lattice and weights: Automatic mesh                          
   0.00000000  0.00000000  0.00000000       0.012
   0.11111111  0.00000000  0.00000000       0.074
   0.22222222  0.00000000  0.00000000       0.074
   0.33333333  0.00000000  0.00000000       0.074
   0.44444444  0.00000000  0.00000000       0.074
   0.11111111  0.11111111  0.00000000       0.074
   0.22222222  0.11111111  0.00000000       0.148
   0.33333333  0.11111111  0.00000000       0.148
   0.44444444  0.11111111  0.00000000       0.074
   0.22222222  0.22222222  0.00000000       0.074
   0.33333333  0.22222222  0.00000000       0.148
   0.33333333  0.33333333  0.00000000       0.025
 
 position of ions in fractional coordinates (direct lattice) 
   0.16636937  0.08314311  0.50002466
   0.41649233  0.08298463  0.50000450
   0.66677377  0.08314311  0.50002466
   0.91666668  0.08333332  0.50000346
   0.16636937  0.33322623  0.50002466
   0.41613197  0.33306597  0.50001715
   0.66693403  0.33306597  0.50001715
   0.91685689  0.33322623  0.50002466
   0.16665142  0.58330281  0.49999727
   0.41649233  0.58350767  0.50000450
   0.66693403  0.58386803  0.50001715
   0.91701537  0.58350767  0.50000450
   0.16665142  0.83334858  0.49999727
   0.41669719  0.83334858  0.49999727
   0.66677377  0.83363063  0.50002466
   0.91685689  0.83363063  0.50002466
   0.08323954  0.16661978  0.49998457
   0.33294264  0.16619010  0.50010384
   0.58324743  0.16619010  0.50010384
   0.83338022  0.16661978  0.49998457
   0.08337970  0.41675942  0.49999130
   0.33294264  0.41675257  0.50010384
   0.58333332  0.41666668  0.49896357
   0.83380990  0.41675257  0.50010384
   0.08354525  0.66677264  0.50000976
   0.33322736  0.66677264  0.50000976
   0.58324743  0.66705736  0.50010384
   0.83380990  0.66705736  0.50010384
   0.08337970  0.91662030  0.49999130
   0.33322736  0.91645475  0.50000976
   0.58324058  0.91662030  0.49999130
   0.83338022  0.91676046  0.49998457
   0.58333332  0.41666668  0.66624832
 
 position of ions in cartesian coordinates  (Angst):
   1.23228289  0.71098483  7.50036990
   3.70283817  0.70962964  7.50006749
   6.17339346  0.71098483  7.50036990
   8.63995557  0.71261144  7.50005196
  -0.00240685  2.84953020  7.50036990
   2.46459898  2.84815977  7.50025718
   4.94107737  2.84815977  7.50025718
   7.40808320  2.84953020  7.50036990
  -1.23427923  4.98801961  7.49995907
   1.23169716  4.98977143  7.50006749
   3.70283817  4.99285297  7.50025718
   6.17397919  4.98977143  7.50006749
  -2.46878454  7.12624554  7.49995907
   0.00022609  7.12624554  7.49995907
   2.46814843  7.12865747  7.50036990
   4.93752792  7.12865747  7.50036990
  -0.00069470  1.42482209  7.49976854
   2.46705381  1.42114771  7.50155760
   4.93862205  1.42114771  7.50155760
   7.40637055  1.42482209  7.49976854
  -1.23427947  3.56385072  7.49986947
   1.22999745  3.56379217  7.50155760
   3.70283793  3.56305765  7.48445354
   6.17567840  3.56379217  7.50155760
  -2.46698935  5.70179832  7.50014647
  -0.00156960  5.70179832  7.50014647
   2.46578157  5.70423305  7.50155760
   4.93989428  5.70423305  7.50155760
  -3.70215135  7.83833020  7.49986947
  -1.23427947  7.83691446  7.50014647
   1.23359241  7.83833020  7.49986947
   3.70283793  7.83952876  7.49976854
   3.70283793  3.56305765  9.99372485
 


--------------------------------------------------------------------------------------------------------


 k-point  1 :   0.0000 0.0000 0.0000  plane waves:   32059
 k-point  2 :   0.1111 0.0000 0.0000  plane waves:   32125
 k-point  3 :   0.2222 0.0000 0.0000  plane waves:   32123
 k-point  4 :   0.3333 0.0000 0.0000  plane waves:   32171
 k-point  5 :   0.4444 0.0000 0.0000  plane waves:   32148
 k-point  6 :   0.1111 0.1111 0.0000  plane waves:   32154
 k-point  7 :   0.2222 0.1111 0.0000  plane waves:   32134
 k-point  8 :   0.3333 0.1111 0.0000  plane waves:   32174
 k-point  9 :   0.4444 0.1111 0.0000  plane waves:   32170
 k-point 10 :   0.2222 0.2222 0.0000  plane waves:   32166
 k-point 11 :   0.3333 0.2222 0.0000  plane waves:   32187
 k-point 12 :   0.3333 0.3333 0.0000  plane waves:   32136

 maximum and minimum number of plane-waves per node :     32187    32059

 maximum number of plane-waves:     32187
 maximum index in each direction: 
   IXMAX=   18   IYMAX=   18   IZMAX=   27
   IXMIN=  -18   IYMIN=  -18   IZMIN=  -27


 serial   3D FFT for wavefunctions
 parallel 3D FFT for charge:
    minimum data exchange during FFTs selected (reduces bandwidth)


 total amount of memory used by VASP MPI-rank0   158217. kBytes
=======================================================================

   base      :      30000. kBytes
   nonlr-proj:       5798. kBytes
   fftplans  :       5659. kBytes
   grid      :      54212. kBytes
   one-center:        202. kBytes
   wavefun   :      62346. kBytes
 
     INWAV:  cpu time    6.8150: real time    6.8690
 Broyden mixing: mesh for mixing (old mesh)
   NGX = 37   NGY = 37   NGZ = 55
  (NGX  =112   NGY  =112   NGZ  =168)
  gives a total of  75295 points

 initial charge density was supplied:
 number of electron     134.9999888 magnetization       0.3224846
 keeping initial charge density in first step


--------------------------------------------------------------------------------------------------------


 Maximum index for non-local projection operator         3690
 Maximum index for augmentation-charges          241 (set IRDMAX)


--------------------------------------------------------------------------------------------------------


 First call to EWALD:  gamma=   0.164
 Maximum number of real-space cells 3x 3x 2
 Maximum number of reciprocal cells 3x 3x 4

    FEWALD:  cpu time    0.0020: real time    0.0022


--------------------------------------- Iteration      1(   1)  ---------------------------------------


    POTLOK:  cpu time    0.2790: real time    0.2833
    SETDIJ:  cpu time    0.0120: real time    0.0128
     EDDAV:  cpu time   40.0849: real time   40.1933
       DOS:  cpu time    0.0010: real time    0.0015
    CHARGE:  cpu time    2.1627: real time    2.1664
    MIXING:  cpu time    0.0050: real time    0.0052
    --------------------------------------------
      LOOP:  cpu time   42.5445: real time   42.6626

 eigenvalue-minimisations  :  6648
 total energy-change (2. order) :-0.2958013E+03  (-0.3613357E-01)
 number of electron     134.9999890 magnetization       0.4057894
 augmentation part        7.5385395 magnetization      -0.2648992

 DIPCOR: dipole corrections for dipol
 direction  3 min pos    14,
 dipolmoment           0.000000      0.000000     -0.797482 electrons x Angstroem
 Tr[quadrupol]     -2215.009723

 energy correction for charged system         0.000000 eV
 dipol+quadrupol energy correction           -0.045529 eV
 added-field ion interaction        -15.900449 eV  (added to PSCEN)


 Broyden mixing:
  rms(total) = 0.72098E-01    rms(broyden)= 0.72080E-01
  rms(prec ) = 0.14694E+00
  weight for this iteration     100.00

 Free energy of the ion-electron system (eV)
  ---------------------------------------------------
  alpha Z        PSCENC =        58.17458823
  Ewald energy   TEWEN  =     13667.27366495
  -Hartree energ DENC   =    -18321.35557302
  -exchange      EXHF   =         0.00000000
  -V(xc)+E(xc)   XCENC  =       485.46937263
  PAW double counting   =      2688.88559270    -2818.76293920
  entropy T*S    EENTRO =        -0.01310842
  eigenvalues    EBANDS =     -1530.26425063
  atomic energy  EATOM  =      5474.79130437
  Solvation  Ediel_sol  =         0.00000000
  ---------------------------------------------------
  free energy    TOTEN  =      -295.80134840 eV

  energy without entropy =     -295.78823997  energy(sigma->0) =     -295.79479419


--------------------------------------------------------------------------------------------------------




--------------------------------------- Iteration      1(   2)  ---------------------------------------


    POTLOK:  cpu time    0.2720: real time    0.2716
    SETDIJ:  cpu time    0.0120: real time    0.0127
     EDDAV:  cpu time   37.6763: real time   37.7819
       DOS:  cpu time    0.0020: real time    0.0014
    CHARGE:  cpu time    2.1907: real time    2.1932
    MIXING:  cpu time    0.0050: real time    0.0053
    --------------------------------------------
      LOOP:  cpu time   40.1579: real time   40.2660

 eigenvalue-minimisations  :  6144
 total energy-change (2. order) : 0.8379775E+00  (-0.3534259E-01)
 number of electron     134.9999889 magnetization       0.4378599
 augmentation part        7.5537511 magnetization      -0.0759035

 DIPCOR: dipole corrections for dipol
 direction  3 min pos    16,
 dipolmoment           0.000000      0.000000     -0.675679 electrons x Angstroem
 Tr[quadrupol]     -2214.668065

 energy correction for charged system         0.000000 eV
 dipol+quadrupol energy correction           -0.032684 eV
 added-field ion interaction        -15.804087 eV  (added to PSCEN)


 Broyden mixing:
  rms(total) = 0.23052E-01    rms(broyden)= 0.23044E-01
  rms(prec ) = 0.51920E-01
  weight for this iteration     100.00

 eigenvalues of (default mixing * dielectric matrix)
  average eigenvalue GAMMA=   0.8242
  0.8242

 Free energy of the ion-electron system (eV)
  ---------------------------------------------------
  alpha Z        PSCENC =        58.28379532
  Ewald energy   TEWEN  =     13667.27366495
  -Hartree energ DENC   =    -18310.17702114
  -exchange      EXHF   =         0.00000000
  -V(xc)+E(xc)   XCENC  =       485.88436124
  PAW double counting   =      2687.61021547    -2817.63660108
  entropy T*S    EENTRO =        -0.01418597
  eigenvalues    EBANDS =     -1540.97890406
  atomic energy  EATOM  =      5474.79130437
  Solvation  Ediel_sol  =         0.00000000
  ---------------------------------------------------
  free energy    TOTEN  =      -294.96337089 eV

  energy without entropy =     -294.94918492  energy(sigma->0) =     -294.95627791


--------------------------------------------------------------------------------------------------------




--------------------------------------- Iteration      1(   3)  ---------------------------------------


    POTLOK:  cpu time    0.2700: real time    0.2721
    SETDIJ:  cpu time    0.0130: real time    0.0128
     EDDAV:  cpu time   39.5510: real time   39.6143
       DOS:  cpu time    0.0020: real time    0.0015
    CHARGE:  cpu time    2.1597: real time    2.1630
    MIXING:  cpu time    0.0060: real time    0.0059
    --------------------------------------------
      LOOP:  cpu time   42.0016: real time   42.0696

 eigenvalue-minimisations  :  6504
 total energy-change (2. order) :-0.3639477E+00  (-0.1093275E-01)
 number of electron     134.9999888 magnetization       0.4192914
 augmentation part        7.5579308 magnetization       0.0490059

 DIPCOR: dipole corrections for dipol
 direction  3 min pos    16,
 dipolmoment           0.000000      0.000000     -0.613485 electrons x Angstroem
 Tr[quadrupol]     -2214.653474

 energy correction for charged system         0.000000 eV
 dipol+quadrupol energy correction           -0.026944 eV
 added-field ion interaction        -14.349360 eV  (added to PSCEN)


 Broyden mixing:
  rms(total) = 0.24097E-01    rms(broyden)= 0.24081E-01
  rms(prec ) = 0.29443E-01
  weight for this iteration     100.00

 eigenvalues of (default mixing * dielectric matrix)
  average eigenvalue GAMMA=   0.7842
  0.7842  0.7842

 Free energy of the ion-electron system (eV)
  ---------------------------------------------------
  alpha Z        PSCENC =        59.74426239
  Ewald energy   TEWEN  =     13667.27366495
  -Hartree energ DENC   =    -18306.11371081
  -exchange      EXHF   =         0.00000000
  -V(xc)+E(xc)   XCENC  =       485.55601204
  PAW double counting   =      2688.71345937    -2818.84007119
  entropy T*S    EENTRO =        -0.01759270
  eigenvalues    EBANDS =     -1546.43464699
  atomic energy  EATOM  =      5474.79130437
  Solvation  Ediel_sol  =         0.00000000
  ---------------------------------------------------
  free energy    TOTEN  =      -295.32731857 eV

  energy without entropy =     -295.30972587  energy(sigma->0) =     -295.31852222


--------------------------------------------------------------------------------------------------------




--------------------------------------- Iteration      1(   4)  ---------------------------------------


    POTLOK:  cpu time    0.2720: real time    0.2733
    SETDIJ:  cpu time    0.0130: real time    0.0128
     EDDAV:  cpu time   39.3720: real time   39.4334
       DOS:  cpu time    0.0020: real time    0.0014
    CHARGE:  cpu time    2.1537: real time    2.1655
    MIXING:  cpu time    0.0060: real time    0.0066
    --------------------------------------------
      LOOP:  cpu time   41.8186: real time   41.8931

 eigenvalue-minimisations  :  6480
 total energy-change (2. order) :-0.2533393E+00  (-0.3640017E-02)
 number of electron     134.9999889 magnetization       0.4321937
 augmentation part        7.5519009 magnetization      -0.0451834

 DIPCOR: dipole corrections for dipol
 direction  3 min pos    15,
 dipolmoment           0.000000      0.000000     -0.621275 electrons x Angstroem
 Tr[quadrupol]     -2214.774874

 energy correction for charged system         0.000000 eV
 dipol+quadrupol energy correction           -0.027632 eV
 added-field ion interaction        -13.459373 eV  (added to PSCEN)


 Broyden mixing:
  rms(total) = 0.11846E-01    rms(broyden)= 0.11840E-01
  rms(prec ) = 0.30078E-01
  weight for this iteration     100.00

 eigenvalues of (default mixing * dielectric matrix)
  average eigenvalue GAMMA=   0.9036
  0.9209  0.8949  0.8949

 Free energy of the ion-electron system (eV)
  ---------------------------------------------------
  alpha Z        PSCENC =        60.63356078
  Ewald energy   TEWEN  =     13667.27366495
  -Hartree energ DENC   =    -18308.17250234
  -exchange      EXHF   =         0.00000000
  -V(xc)+E(xc)   XCENC  =       485.39235990
  PAW double counting   =      2689.30764815    -2819.31568354
  entropy T*S    EENTRO =        -0.01526314
  eigenvalues    EBANDS =     -1545.47574706
  atomic energy  EATOM  =      5474.79130437
  Solvation  Ediel_sol  =         0.00000000
  ---------------------------------------------------
  free energy    TOTEN  =      -295.58065792 eV

  energy without entropy =     -295.56539477  energy(sigma->0) =     -295.57302635


--------------------------------------------------------------------------------------------------------




--------------------------------------- Iteration      1(   5)  ---------------------------------------


    POTLOK:  cpu time    0.2690: real time    0.2683
    SETDIJ:  cpu time    0.0120: real time    0.0129
     EDDAV:  cpu time   41.3237: real time   41.3878
       DOS:  cpu time    0.0020: real time    0.0015
    CHARGE:  cpu time    2.1867: real time    2.1903
    MIXING:  cpu time    0.0060: real time    0.0061
    --------------------------------------------
      LOOP:  cpu time   43.7993: real time   43.8669

 eigenvalue-minimisations  :  6888
 total energy-change (2. order) :-0.4741705E-01  (-0.1096619E-02)
 number of electron     134.9999888 magnetization       0.4162893
 augmentation part        7.5576638 magnetization       0.0435384

 DIPCOR: dipole corrections for dipol
 direction  3 min pos    14,
 dipolmoment           0.000000      0.000000     -0.579828 electrons x Angstroem
 Tr[quadrupol]     -2214.848449

 energy correction for charged system         0.000000 eV
 dipol+quadrupol energy correction           -0.024068 eV
 added-field ion interaction        -11.560783 eV  (added to PSCEN)


 Broyden mixing:
  rms(total) = 0.13263E-01    rms(broyden)= 0.13257E-01
  rms(prec ) = 0.19779E-01
  weight for this iteration     100.00

 eigenvalues of (default mixing * dielectric matrix)
  average eigenvalue GAMMA=   1.0770
  1.5235  1.5235  0.6304  0.6304

 Free energy of the ion-electron system (eV)
  ---------------------------------------------------
  alpha Z        PSCENC =        62.53571452
  Ewald energy   TEWEN  =     13667.27366495
  -Hartree energ DENC   =    -18305.92919044
  -exchange      EXHF   =         0.00000000
  -V(xc)+E(xc)   XCENC  =       485.34363314
  PAW double counting   =      2689.78352579    -2819.75474275
  entropy T*S    EENTRO =        -0.01715394
  eigenvalues    EBANDS =     -1549.65483060
  atomic energy  EATOM  =      5474.79130437
  Solvation  Ediel_sol  =         0.00000000
  ---------------------------------------------------
  free energy    TOTEN  =      -295.62807496 eV

  energy without entropy =     -295.61092103  energy(sigma->0) =     -295.61949800


--------------------------------------------------------------------------------------------------------




--------------------------------------- Iteration      1(   6)  ---------------------------------------


    POTLOK:  cpu time    0.2700: real time    0.2709
    SETDIJ:  cpu time    0.0130: real time    0.0128
     EDDAV:  cpu time   40.2809: real time   40.3448
       DOS:  cpu time    0.0020: real time    0.0021
    CHARGE:  cpu time    2.2077: real time    2.2080
    MIXING:  cpu time    0.0070: real time    0.0066
    --------------------------------------------
      LOOP:  cpu time   42.7805: real time   42.8451

 eigenvalue-minimisations  :  6672
 total energy-change (2. order) :-0.4411384E-01  (-0.1372448E-02)
 number of electron     134.9999889 magnetization       0.4164367
 augmentation part        7.5537982 magnetization      -0.0198001

 DIPCOR: dipole corrections for dipol
 direction  3 min pos    13,
 dipolmoment           0.000000      0.000000     -0.579175 electrons x Angstroem
 Tr[quadrupol]     -2214.950034

 energy correction for charged system         0.000000 eV
 dipol+quadrupol energy correction           -0.024014 eV
 added-field ion interaction        -10.548225 eV  (added to PSCEN)


 Broyden mixing:
  rms(total) = 0.54987E-02    rms(broyden)= 0.54932E-02
  rms(prec ) = 0.13684E-01
  weight for this iteration     100.00

 eigenvalues of (default mixing * dielectric matrix)
  average eigenvalue GAMMA=   1.0460
  1.6700  1.6700  0.7136  0.7136  0.4627

 Free energy of the ion-electron system (eV)
  ---------------------------------------------------
  alpha Z        PSCENC =        63.54832661
  Ewald energy   TEWEN  =     13667.27366495
  -Hartree energ DENC   =    -18307.18937056
  -exchange      EXHF   =         0.00000000
  -V(xc)+E(xc)   XCENC  =       485.34508538
  PAW double counting   =      2689.80422388    -2819.71316509
  entropy T*S    EENTRO =        -0.01624862
  eigenvalues    EBANDS =     -1549.51600973
  atomic energy  EATOM  =      5474.79130437
  Solvation  Ediel_sol  =         0.00000000
  ---------------------------------------------------
  free energy    TOTEN  =      -295.67218881 eV

  energy without entropy =     -295.65594019  energy(sigma->0) =     -295.66406450


--------------------------------------------------------------------------------------------------------




--------------------------------------- Iteration      1(   7)  ---------------------------------------


    POTLOK:  cpu time    0.2690: real time    0.2708
    SETDIJ:  cpu time    0.0130: real time    0.0127
     EDDAV:  cpu time   38.9931: real time   39.0721
       DOS:  cpu time    0.0020: real time    0.0015
    CHARGE:  cpu time    2.2147: real time    2.2174
    MIXING:  cpu time    0.0070: real time    0.0070
    --------------------------------------------
      LOOP:  cpu time   41.4987: real time   41.5815

 eigenvalue-minimisations  :  6408
 total energy-change (2. order) :-0.1166173E-01  (-0.1772915E-03)
 number of electron     134.9999888 magnetization       0.4039532
 augmentation part        7.5567371 magnetization       0.0164712

 DIPCOR: dipole corrections for dipol
 direction  3 min pos    12,
 dipolmoment           0.000000      0.000000     -0.550142 electrons x Angstroem
 Tr[quadrupol]     -2215.012872

 energy correction for charged system         0.000000 eV
 dipol+quadrupol energy correction           -0.021667 eV
 added-field ion interaction         -9.070029 eV  (added to PSCEN)


 Broyden mixing:
  rms(total) = 0.52718E-02    rms(broyden)= 0.52692E-02
  rms(prec ) = 0.90924E-02
  weight for this iteration     100.00

 eigenvalues of (default mixing * dielectric matrix)
  average eigenvalue GAMMA=   1.1264
  1.9728  1.9728  0.8606  0.8606  0.5568  0.5350

 Free energy of the ion-electron system (eV)
  ---------------------------------------------------
  alpha Z        PSCENC =        65.02887023
  Ewald energy   TEWEN  =     13667.27366495
  -Hartree energ DENC   =    -18306.10538380
  -exchange      EXHF   =         0.00000000
  -V(xc)+E(xc)   XCENC  =       485.33389037
  PAW double counting   =      2689.64389112    -2819.53668353
  entropy T*S    EENTRO =        -0.01694427
  eigenvalues    EBANDS =     -1552.09645999
  atomic energy  EATOM  =      5474.79130437
  Solvation  Ediel_sol  =         0.00000000
  ---------------------------------------------------
  free energy    TOTEN  =      -295.68385054 eV

  energy without entropy =     -295.66690627  energy(sigma->0) =     -295.67537841


--------------------------------------------------------------------------------------------------------




--------------------------------------- Iteration      1(   8)  ---------------------------------------


    POTLOK:  cpu time    0.2770: real time    0.2777
    SETDIJ:  cpu time    0.0130: real time    0.0130
     EDDAV:  cpu time   37.3333: real time   37.3990
       DOS:  cpu time    0.0010: real time    0.0015
    CHARGE:  cpu time    2.2307: real time    2.2304
    MIXING:  cpu time    0.0070: real time    0.0075
    --------------------------------------------
      LOOP:  cpu time   39.8619: real time   39.9291

 eigenvalue-minimisations  :  6048
 total energy-change (2. order) :-0.1436034E-01  (-0.1091059E-03)
 number of electron     134.9999889 magnetization       0.3992538
 augmentation part        7.5553586 magnetization      -0.0116315

 DIPCOR: dipole corrections for dipol
 direction  3 min pos    11,
 dipolmoment           0.000000      0.000000     -0.530399 electrons x Angstroem
 Tr[quadrupol]     -2215.075279

 energy correction for charged system         0.000000 eV
 dipol+quadrupol energy correction           -0.020140 eV
 added-field ion interaction         -7.829159 eV  (added to PSCEN)


 Broyden mixing:
  rms(total) = 0.17777E-02    rms(broyden)= 0.17757E-02
  rms(prec ) = 0.43066E-02
  weight for this iteration     100.00

 eigenvalues of (default mixing * dielectric matrix)
  average eigenvalue GAMMA=   1.2955
  2.5852  2.5852  1.0439  1.0439  0.6689  0.6689  0.4724

 Free energy of the ion-electron system (eV)
  ---------------------------------------------------
  alpha Z        PSCENC =        66.27126762
  Ewald energy   TEWEN  =     13667.27366495
  -Hartree energ DENC   =    -18306.18082683
  -exchange      EXHF   =         0.00000000
  -V(xc)+E(xc)   XCENC  =       485.33053355
  PAW double counting   =      2689.14550248    -2819.04758026
  entropy T*S    EENTRO =        -0.01663288
  eigenvalues    EBANDS =     -1553.26544388
  atomic energy  EATOM  =      5474.79130437
  Solvation  Ediel_sol  =         0.00000000
  ---------------------------------------------------
  free energy    TOTEN  =      -295.69821088 eV

  energy without entropy =     -295.68157800  energy(sigma->0) =     -295.68989444


--------------------------------------------------------------------------------------------------------




--------------------------------------- Iteration      1(   9)  ---------------------------------------


    POTLOK:  cpu time    0.2670: real time    0.2682
    SETDIJ:  cpu time    0.0120: real time    0.0128
     EDDAV:  cpu time   36.9114: real time   36.9684
       DOS:  cpu time    0.0010: real time    0.0014
    CHARGE:  cpu time    2.1977: real time    2.2009
    MIXING:  cpu time    0.0140: real time    0.0143
    --------------------------------------------
      LOOP:  cpu time   39.4030: real time   39.4660

 eigenvalue-minimisations  :  5904
 total energy-change (2. order) :-0.3404825E-02  (-0.1422960E-04)
 number of electron     134.9999889 magnetization       0.3969696
 augmentation part        7.5558787 magnetization      -0.0040658

 DIPCOR: dipole corrections for dipol
 direction  3 min pos    10,
 dipolmoment           0.000000      0.000000     -0.512830 electrons x Angstroem
 Tr[quadrupol]     -2215.134825

 energy correction for charged system         0.000000 eV
 dipol+quadrupol energy correction           -0.018828 eV
 added-field ion interaction         -6.684786 eV  (added to PSCEN)


 Broyden mixing:
  rms(total) = 0.83122E-03    rms(broyden)= 0.83089E-03
  rms(prec ) = 0.17508E-02
  weight for this iteration     100.00

 eigenvalues of (default mixing * dielectric matrix)
  average eigenvalue GAMMA=   1.3678
  3.0226  3.0226  1.1763  1.1763  0.4715  0.7148  0.7148  0.6435

 Free energy of the ion-electron system (eV)
  ---------------------------------------------------
  alpha Z        PSCENC =        67.41695221
  Ewald energy   TEWEN  =     13667.27366495
  -Hartree energ DENC   =    -18305.87561283
  -exchange      EXHF   =         0.00000000
  -V(xc)+E(xc)   XCENC  =       485.32851852
  PAW double counting   =      2688.99234580    -2818.89847115
  entropy T*S    EENTRO =        -0.01672733
  eigenvalues    EBANDS =     -1554.71359025
  atomic energy  EATOM  =      5474.79130437
  Solvation  Ediel_sol  =         0.00000000
  ---------------------------------------------------
  free energy    TOTEN  =      -295.70161570 eV

  energy without entropy =     -295.68488838  energy(sigma->0) =     -295.69325204


--------------------------------------------------------------------------------------------------------




--------------------------------------- Iteration      1(  10)  ---------------------------------------


    POTLOK:  cpu time    0.2730: real time    0.2740
    SETDIJ:  cpu time    0.0130: real time    0.0129
     EDDAV:  cpu time   33.6599: real time   33.7201
       DOS:  cpu time    0.0010: real time    0.0014
    CHARGE:  cpu time    2.1837: real time    2.1873
    MIXING:  cpu time    0.0080: real time    0.0082
    --------------------------------------------
      LOOP:  cpu time   36.1385: real time   36.2040

 eigenvalue-minimisations  :  5232
 total energy-change (2. order) :-0.9912176E-03  (-0.3993225E-05)
 number of electron     134.9999889 magnetization       0.3955760
 augmentation part        7.5561329 magnetization      -0.0005824

 DIPCOR: dipole corrections for dipol
 direction  3 min pos    10,
 dipolmoment           0.000000      0.000000     -0.503691 electrons x Angstroem
 Tr[quadrupol]     -2215.114068

 energy correction for charged system         0.000000 eV
 dipol+quadrupol energy correction           -0.018163 eV
 added-field ion interaction         -6.565656 eV  (added to PSCEN)


 Broyden mixing:
  rms(total) = 0.84478E-03    rms(broyden)= 0.84441E-03
  rms(prec ) = 0.16336E-02
  weight for this iteration     100.00

 eigenvalues of (default mixing * dielectric matrix)
  average eigenvalue GAMMA=   1.4696
  3.5082  3.5082  1.3776  1.3776  0.8291  0.8291  0.4725  0.6620  0.6620

 Free energy of the ion-electron system (eV)
  ---------------------------------------------------
  alpha Z        PSCENC =        67.53674733
  Ewald energy   TEWEN  =     13667.27366495
  -Hartree energ DENC   =    -18305.76619912
  -exchange      EXHF   =         0.00000000
  -V(xc)+E(xc)   XCENC  =       485.32747879
  PAW double counting   =      2689.03423844    -2818.94099323
  entropy T*S    EENTRO =        -0.01675275
  eigenvalues    EBANDS =     -1554.94209570
  atomic energy  EATOM  =      5474.79130437
  Solvation  Ediel_sol  =         0.00000000
  ---------------------------------------------------
  free energy    TOTEN  =      -295.70260692 eV

  energy without entropy =     -295.68585417  energy(sigma->0) =     -295.69423055


--------------------------------------------------------------------------------------------------------




--------------------------------------- Iteration      1(  11)  ---------------------------------------


    POTLOK:  cpu time    0.2770: real time    0.2767
    SETDIJ:  cpu time    0.0130: real time    0.0129
     EDDAV:  cpu time   35.1707: real time   35.2240
       DOS:  cpu time    0.0020: real time    0.0015
    CHARGE:  cpu time    2.2637: real time    2.2666
    MIXING:  cpu time    0.0090: real time    0.0090
    --------------------------------------------
      LOOP:  cpu time   37.7353: real time   37.7907

 eigenvalue-minimisations  :  5544
 total energy-change (2. order) :-0.7934198E-03  (-0.4695888E-05)
 number of electron     134.9999889 magnetization       0.3947475
 augmentation part        7.5560813 magnetization      -0.0020293

 DIPCOR: dipole corrections for dipol
 direction  3 min pos    10,
 dipolmoment           0.000000      0.000000     -0.497774 electrons x Angstroem
 Tr[quadrupol]     -2215.097241

 energy correction for charged system         0.000000 eV
 dipol+quadrupol energy correction           -0.017738 eV
 added-field ion interaction         -6.488520 eV  (added to PSCEN)


 Broyden mixing:
  rms(total) = 0.40945E-03    rms(broyden)= 0.40944E-03
  rms(prec ) = 0.81264E-03
  weight for this iteration     100.00

 eigenvalues of (default mixing * dielectric matrix)
  average eigenvalue GAMMA=   1.5872
  4.1261  4.1261  1.5868  1.5868  0.9594  0.9594  0.4722  0.7083  0.7083  0.6383

 Free energy of the ion-electron system (eV)
  ---------------------------------------------------
  alpha Z        PSCENC =        67.61430751
  Ewald energy   TEWEN  =     13667.27366495
  -Hartree energ DENC   =    -18305.76926237
  -exchange      EXHF   =         0.00000000
  -V(xc)+E(xc)   XCENC  =       485.32678799
  PAW double counting   =      2689.13874504    -2819.04461437
  entropy T*S    EENTRO =        -0.01671791
  eigenvalues    EBANDS =     -1555.01761556
  atomic energy  EATOM  =      5474.79130437
  Solvation  Ediel_sol  =         0.00000000
  ---------------------------------------------------
  free energy    TOTEN  =      -295.70340034 eV

  energy without entropy =     -295.68668243  energy(sigma->0) =     -295.69504139


--------------------------------------------------------------------------------------------------------




--------------------------------------- Iteration      1(  12)  ---------------------------------------


    POTLOK:  cpu time    0.2740: real time    0.2759
    SETDIJ:  cpu time    0.0120: real time    0.0128
     EDDAV:  cpu time   34.9147: real time   34.9633
       DOS:  cpu time    0.0020: real time    0.0015
    CHARGE:  cpu time    2.1777: real time    2.1870
    MIXING:  cpu time    0.0090: real time    0.0095
    --------------------------------------------
      LOOP:  cpu time   37.3903: real time   37.4501

 eigenvalue-minimisations  :  5472
 total energy-change (2. order) :-0.5080295E-03  (-0.3368622E-05)
 number of electron     134.9999889 magnetization       0.3945461
 augmentation part        7.5561669 magnetization      -0.0010337

 DIPCOR: dipole corrections for dipol
 direction  3 min pos    12,
 dipolmoment           0.000000      0.000000     -0.492377 electrons x Angstroem
 Tr[quadrupol]     -2214.903937

 energy correction for charged system         0.000000 eV
 dipol+quadrupol energy correction           -0.017356 eV
 added-field ion interaction         -8.117665 eV  (added to PSCEN)


 Broyden mixing:
  rms(total) = 0.31617E-03    rms(broyden)= 0.31614E-03
  rms(prec ) = 0.62621E-03
  weight for this iteration     100.00

 eigenvalues of (default mixing * dielectric matrix)
  average eigenvalue GAMMA=   1.6340
  4.5388  4.5388  1.7395  1.7395  1.0713  1.0713  0.4727  0.7243  0.7243  0.7220
  0.6318

 Free energy of the ion-electron system (eV)
  ---------------------------------------------------
  alpha Z        PSCENC =        65.98554582
  Ewald energy   TEWEN  =     13667.27366495
  -Hartree energ DENC   =    -18305.73365970
  -exchange      EXHF   =         0.00000000
  -V(xc)+E(xc)   XCENC  =       485.32701681
  PAW double counting   =      2689.19308190    -2819.09637178
  entropy T*S    EENTRO =        -0.01670998
  eigenvalues    EBANDS =     -1553.42778074
  atomic energy  EATOM  =      5474.79130437
  Solvation  Ediel_sol  =         0.00000000
  ---------------------------------------------------
  free energy    TOTEN  =      -295.70390837 eV

  energy without entropy =     -295.68719839  energy(sigma->0) =     -295.69555338


--------------------------------------------------------------------------------------------------------




--------------------------------------- Iteration      1(  13)  ---------------------------------------


    POTLOK:  cpu time    0.2690: real time    0.2692
    SETDIJ:  cpu time    0.0120: real time    0.0128
     EDDAV:  cpu time   34.7607: real time   34.8128
       DOS:  cpu time    0.0010: real time    0.0013
    CHARGE:  cpu time    2.1817: real time    2.1827
    MIXING:  cpu time    0.0110: real time    0.0106
    --------------------------------------------
      LOOP:  cpu time   37.2343: real time   37.2894

 eigenvalue-minimisations  :  5448
 total energy-change (2. order) :-0.2950032E-03  (-0.2218223E-05)
 number of electron     134.9999889 magnetization       0.3946489
 augmentation part        7.5560256 magnetization      -0.0027523

 DIPCOR: dipole corrections for dipol
 direction  3 min pos    16,
 dipolmoment           0.000000      0.000000     -0.490423 electrons x Angstroem
 Tr[quadrupol]     -2214.542447

 energy correction for charged system         0.000000 eV
 dipol+quadrupol energy correction           -0.017218 eV
 added-field ion interaction        -11.470949 eV  (added to PSCEN)


 Broyden mixing:
  rms(total) = 0.26304E-03    rms(broyden)= 0.26289E-03
  rms(prec ) = 0.55703E-03
  weight for this iteration     100.00

 eigenvalues of (default mixing * dielectric matrix)
  average eigenvalue GAMMA=   1.7545
  5.1601  5.1601  2.0689  2.0689  1.2329  1.2329  0.8300  0.8300  0.4727  0.6883
  0.6883  0.6214

 Free energy of the ion-electron system (eV)
  ---------------------------------------------------
  alpha Z        PSCENC =        62.63239862
  Ewald energy   TEWEN  =     13667.27366495
  -Hartree energ DENC   =    -18305.73080394
  -exchange      EXHF   =         0.00000000
  -V(xc)+E(xc)   XCENC  =       485.32759233
  PAW double counting   =      2689.18380802    -2819.08728162
  entropy T*S    EENTRO =        -0.01667792
  eigenvalues    EBANDS =     -1550.07820820
  atomic energy  EATOM  =      5474.79130437
  Solvation  Ediel_sol  =         0.00000000
  ---------------------------------------------------
  free energy    TOTEN  =      -295.70420337 eV

  energy without entropy =     -295.68752545  energy(sigma->0) =     -295.69586441


--------------------------------------------------------------------------------------------------------




--------------------------------------- Iteration      1(  14)  ---------------------------------------


    POTLOK:  cpu time    0.2730: real time    0.2750
    SETDIJ:  cpu time    0.0130: real time    0.0131
     EDDAV:  cpu time   33.2399: real time   33.3029
       DOS:  cpu time    0.0020: real time    0.0015
    CHARGE:  cpu time    2.2217: real time    2.2229
    MIXING:  cpu time    0.0100: real time    0.0107
    --------------------------------------------
      LOOP:  cpu time   35.7606: real time   35.8261

 eigenvalue-minimisations  :  5136
 total energy-change (2. order) :-0.1322000E-03  (-0.1807947E-05)
 number of electron     134.9999889 magnetization       0.3949924
 augmentation part        7.5560174 magnetization      -0.0025916

 DIPCOR: dipole corrections for dipol
 direction  3 min pos    18,
 dipolmoment           0.000000      0.000000     -0.488699 electrons x Angstroem
 Tr[quadrupol]     -2214.356539

 energy correction for charged system         0.000000 eV
 dipol+quadrupol energy correction           -0.017097 eV
 added-field ion interaction        -13.117438 eV  (added to PSCEN)


 Broyden mixing:
  rms(total) = 0.32837E-03    rms(broyden)= 0.32836E-03
  rms(prec ) = 0.66483E-03
  weight for this iteration     100.00

 eigenvalues of (default mixing * dielectric matrix)
  average eigenvalue GAMMA=   1.7946
  5.5308  5.5308  2.2785  2.2785  1.3279  1.3279  0.9204  0.9204  0.4726  0.7072
  0.7072  0.6284  0.6996

 Free energy of the ion-electron system (eV)
  ---------------------------------------------------
  alpha Z        PSCENC =        60.98603086
  Ewald energy   TEWEN  =     13667.27366495
  -Hartree energ DENC   =    -18305.68477356
  -exchange      EXHF   =         0.00000000
  -V(xc)+E(xc)   XCENC  =       485.32771196
  PAW double counting   =      2689.16233067    -2819.06559548
  entropy T*S    EENTRO =        -0.01666788
  eigenvalues    EBANDS =     -1548.47834146
  atomic energy  EATOM  =      5474.79130437
  Solvation  Ediel_sol  =         0.00000000
  ---------------------------------------------------
  free energy    TOTEN  =      -295.70433557 eV

  energy without entropy =     -295.68766769  energy(sigma->0) =     -295.69600163


--------------------------------------------------------------------------------------------------------




--------------------------------------- Iteration      1(  15)  ---------------------------------------


    POTLOK:  cpu time    0.2700: real time    0.2700
    SETDIJ:  cpu time    0.0130: real time    0.0131
     EDDAV:  cpu time   36.1235: real time   36.1831
       DOS:  cpu time    0.0020: real time    0.0015
    --------------------------------------------
      LOOP:  cpu time   36.4075: real time   36.4675

 eigenvalue-minimisations  :  5760
 total energy-change (2. order) : 0.4869370E-04  (-0.2327580E-05)
 number of electron     134.9999889 magnetization       0.3949924
 augmentation part        7.5560174 magnetization      -0.0025916

 DIPCOR: dipole corrections for dipol
 direction  3 min pos    19,
 dipolmoment           0.000000      0.000000     -0.488286 electrons x Angstroem
 Tr[quadrupol]     -2214.261623

 energy correction for charged system         0.000000 eV
 dipol+quadrupol energy correction           -0.017069 eV
 added-field ion interaction        -13.949038 eV  (added to PSCEN)


 Free energy of the ion-electron system (eV)
  ---------------------------------------------------
  alpha Z        PSCENC =        60.15445957
  Ewald energy   TEWEN  =     13667.27366495
  -Hartree energ DENC   =    -18305.61707767
  -exchange      EXHF   =         0.00000000
  -V(xc)+E(xc)   XCENC  =       485.32740592
  PAW double counting   =      2689.14814024    -2819.05149051
  entropy T*S    EENTRO =        -0.01667152
  eigenvalues    EBANDS =     -1547.71402223
  atomic energy  EATOM  =      5474.79130437
  Solvation  Ediel_sol  =         0.00000000
  ---------------------------------------------------
  free energy    TOTEN  =      -295.70428688 eV

  energy without entropy =     -295.68761536  energy(sigma->0) =     -295.69595112


--------------------------------------------------------------------------------------------------------




 average (electrostatic) potential at core
  the test charge radii are     0.6991  0.9254
  (the norm of the test charge is              1.0000)
       1 -57.0114       2 -57.0698       3 -57.0114       4 -56.9707       5 -57.0114
       6 -57.2005       7 -57.2005       8 -57.0114       9 -56.9926      10 -57.0698
      11 -57.2005      12 -57.0698      13 -56.9926      14 -56.9926      15 -57.0114
      16 -57.0114      17 -57.0059      18 -57.1021      19 -57.1021      20 -57.0059
      21 -56.9935      22 -57.1021      23 -57.2683      24 -57.1021      25 -56.9872
      26 -56.9872      27 -57.1021      28 -57.1021      29 -56.9935      30 -56.9872
      31 -56.9935      32 -57.0059      33 -53.3820
 
 
 
 E-fermi :  -0.8739     XC(G=0):  -3.0990     alpha+bet : -2.7775


 spin component 1

 k-point     1 :       0.0000    0.0000    0.0000
  band No.  band energies     occupation 
      1     -27.5970      1.00000
      2     -27.5969      1.00000
      3     -27.5717      1.00000
      4     -21.1554      1.00000
      5     -19.7779      1.00000
      6     -19.7068      1.00000
      7     -19.7068      1.00000
      8     -19.6483      1.00000
      9     -19.6483      1.00000
     10     -19.6235      1.00000
     11     -16.9027      1.00000
     12     -16.8805      1.00000
     13     -16.8805      1.00000
     14     -16.8655      1.00000
     15     -16.8452      1.00000
     16     -16.8452      1.00000
     17     -15.9175      1.00000
     18     -15.9103      1.00000
     19     -15.9103      1.00000
     20     -14.8631      1.00000
     21     -14.8631      1.00000
     22     -14.8590      1.00000
     23     -12.1820      1.00000
     24     -12.1781      1.00000
     25     -12.1781      1.00000
     26     -12.1717      1.00000
     27     -12.1408      1.00000
     28     -12.1408      1.00000
     29     -10.6156      1.00000
     30     -10.6156      1.00000
     31     -10.5604      1.00000
     32     -10.5598      1.00000
     33     -10.5598      1.00000
     34     -10.5580      1.00000
     35      -9.3431      1.00000
     36      -9.0770      1.00000
     37      -9.0770      1.00000
     38      -9.0740      1.00000
     39      -9.0503      1.00000
     40      -9.0503      1.00000
     41      -9.0371      1.00000
     42      -8.0398      1.00000
     43      -8.0398      1.00000
     44      -8.0388      1.00000
     45      -7.7899      1.00000
     46      -7.6295      1.00000
     47      -7.6295      1.00000
     48      -7.5247      1.00000
     49      -7.5247      1.00000
     50      -7.4896      1.00000
     51      -6.6954      1.00000
     52      -6.6931      1.00000
     53      -6.6931      1.00000
     54      -6.6591      1.00000
     55      -6.6591      1.00000
     56      -6.6448      1.00000
     57      -4.6676      1.00000
     58      -4.6676      1.00000
     59      -4.5499      1.00000
     60      -4.4876      1.00000
     61      -4.4876      1.00000
     62      -4.4252      1.00000
     63      -4.3877      1.00000
     64      -4.3877      1.00000
     65      -4.0359      1.00000
     66      -4.0359      1.00000
     67      -4.0348      1.00000
     68      -0.8987      0.75853
     69      -0.0682      0.00000
     70      -0.0682      0.00000
     71      -0.0567      0.00000
     72       1.0532      0.00000
     73       1.0785      0.00000
     74       1.0785      0.00000
     75       1.1168      0.00000
     76       1.1713      0.00000
     77       1.1713      0.00000
     78       1.4305      0.00000
     79       1.5466      0.00000
     80       1.5473      0.00000
     81       1.6049      0.00000
     82       2.2036      0.00000
     83       2.7051      0.00000
     84       2.7066      0.00000
     85       3.0038      0.00000
     86       3.1041      0.00000
     87       3.4457      0.00000
     88       3.4458      0.00000
     89       3.7426      0.00000
     90       3.8995      0.00000
     91       3.8998      0.00000
     92       3.9471      0.00000
     93       3.9472      0.00000
     94       4.0098      0.00000
     95       4.0359      0.00000
     96       4.1431      0.00000
     97       4.1434      0.00000
     98       4.2451      0.00000
     99       4.6684      0.00000
    100       5.3652      0.00000
    101       5.4044      0.00000
    102       5.4215      0.00000
    103       5.4216      0.00000
    104       5.4847      0.00000
    105       5.4848      0.00000
    106       5.6569      0.00000
    107       5.6571      0.00000
    108       5.6718      0.00000
    109       5.6818      0.00000
    110       5.6819      0.00000
    111       5.7274      0.00000
    112       5.8488      0.00000
    113       5.8489      0.00000
    114       6.0231      0.00000
    115       6.0718      0.00000
    116       6.0720      0.00000
    117       6.1524      0.00000
    118       6.1526      0.00000
    119       6.2672      0.00000
    120       6.3104      0.00000

 k-point     2 :       0.1111    0.0000    0.0000
  band No.  band energies     occupation 
      1     -27.5970      1.00000
      2     -27.5969      1.00000
      3     -27.5717      1.00000
      4     -21.1373      1.00000
      5     -20.0063      1.00000
      6     -19.8262      1.00000
      7     -19.8237      1.00000
      8     -19.5221      1.00000
      9     -19.4961      1.00000
     10     -19.3321      1.00000
     11     -17.3165      1.00000
     12     -17.2993      1.00000
     13     -16.8557      1.00000
     14     -16.8513      1.00000
     15     -16.4172      1.00000
     16     -16.4003      1.00000
     17     -16.1790      1.00000
     18     -15.9816      1.00000
     19     -15.9776      1.00000
     20     -14.7654      1.00000
     21     -14.7633      1.00000
     22     -14.5670      1.00000
     23     -12.6083      1.00000
     24     -12.5989      1.00000
     25     -12.3096      1.00000
     26     -12.3083      1.00000
     27     -11.7863      1.00000
     28     -11.7841      1.00000
     29     -10.9152      1.00000
     30     -10.9102      1.00000
     31     -10.4315      1.00000
     32     -10.4290      1.00000
     33     -10.1430      1.00000
     34     -10.1428      1.00000
     35      -9.7965      1.00000
     36      -9.4299      1.00000
     37      -9.4240      1.00000
     38      -9.3218      1.00000
     39      -8.7025      1.00000
     40      -8.6972      1.00000
     41      -8.3361      1.00000
     42      -8.0969      1.00000
     43      -8.0963      1.00000
     44      -8.0214      1.00000
     45      -8.0032      1.00000
     46      -7.7555      1.00000
     47      -7.7507      1.00000
     48      -7.4284      1.00000
     49      -7.3630      1.00000
     50      -7.1698      1.00000
     51      -6.9464      1.00000
     52      -6.8711      1.00000
     53      -6.8615      1.00000
     54      -6.5904      1.00000
     55      -6.5890      1.00000
     56      -6.3876      1.00000
     57      -4.9505      1.00000
     58      -4.8975      1.00000
     59      -4.7432      1.00000
     60      -4.7073      1.00000
     61      -4.4566      1.00000
     62      -4.4356      1.00000
     63      -4.1877      1.00000
     64      -4.0695      1.00000
     65      -4.0678      1.00000
     66      -3.9432      1.00000
     67      -3.9266      1.00000
     68      -0.8935      0.71031
     69      -0.0353      0.00000
     70      -0.0286      0.00000
     71       0.0765      0.00000
     72       0.5605      0.00000
     73       0.5881      0.00000
     74       1.0733      0.00000
     75       1.0734      0.00000
     76       1.3237      0.00000
     77       1.5149      0.00000
     78       1.5260      0.00000
     79       1.6430      0.00000
     80       1.6733      0.00000
     81       1.7496      0.00000
     82       2.2544      0.00000
     83       2.5659      0.00000
     84       2.7684      0.00000
     85       2.9851      0.00000
     86       3.2346      0.00000
     87       3.3826      0.00000
     88       3.4008      0.00000
     89       3.5683      0.00000
     90       3.7804      0.00000
     91       3.8241      0.00000
     92       3.8681      0.00000
     93       4.0225      0.00000
     94       4.0266      0.00000
     95       4.2219      0.00000
     96       4.3018      0.00000
     97       4.3541      0.00000
     98       4.5176      0.00000
     99       4.6744      0.00000
    100       4.8228      0.00000
    101       5.1242      0.00000
    102       5.1282      0.00000
    103       5.2406      0.00000
    104       5.2889      0.00000
    105       5.4330      0.00000
    106       5.5401      0.00000
    107       5.6724      0.00000
    108       5.7088      0.00000
    109       5.7553      0.00000
    110       5.7554      0.00000
    111       5.9154      0.00000
    112       5.9506      0.00000
    113       6.0108      0.00000
    114       6.0376      0.00000
    115       6.0582      0.00000
    116       6.2016      0.00000
    117       6.2084      0.00000
    118       6.2495      0.00000
    119       6.3220      0.00000
    120       6.3559      0.00000

 k-point     3 :       0.2222    0.0000    0.0000
  band No.  band energies     occupation 
      1     -27.5970      1.00000
      2     -27.5969      1.00000
      3     -27.5717      1.00000
      4     -21.0832      1.00000
      5     -20.2681      1.00000
      6     -19.9388      1.00000
      7     -19.9302      1.00000
      8     -19.3049      1.00000
      9     -19.2835      1.00000
     10     -18.9653      1.00000
     11     -17.7261      1.00000
     12     -17.7088      1.00000
     13     -16.8070      1.00000
     14     -16.8022      1.00000
     15     -16.6645      1.00000
     16     -16.1352      1.00000
     17     -16.1318      1.00000
     18     -15.9335      1.00000
     19     -15.9197      1.00000
     20     -14.5230      1.00000
     21     -14.5217      1.00000
     22     -14.0029      1.00000
     23     -13.0940      1.00000
     24     -13.0823      1.00000
     25     -12.6404      1.00000
     26     -12.6395      1.00000
     27     -11.4487      1.00000
     28     -11.4476      1.00000
     29     -11.1456      1.00000
     30     -11.1393      1.00000
     31     -10.5329      1.00000
     32     -10.0875      1.00000
     33     -10.0853      1.00000
     34      -9.7917      1.00000
     35      -9.7865      1.00000
     36      -9.6392      1.00000
     37      -9.6369      1.00000
     38      -9.2585      1.00000
     39      -8.3630      1.00000
     40      -8.3564      1.00000
     41      -8.2933      1.00000
     42      -8.2632      1.00000
     43      -8.2623      1.00000
     44      -7.9674      1.00000
     45      -7.8944      1.00000
     46      -7.8724      1.00000
     47      -7.6328      1.00000
     48      -7.1987      1.00000
     49      -7.1808      1.00000
     50      -7.1689      1.00000
     51      -7.1545      1.00000
     52      -7.1200      1.00000
     53      -6.7615      1.00000
     54      -6.6028      1.00000
     55      -6.6002      1.00000
     56      -6.0936      1.00000
     57      -5.3947      1.00000
     58      -5.3441      1.00000
     59      -4.9654      1.00000
     60      -4.8234      1.00000
     61      -4.4828      1.00000
     62      -4.4299      1.00000
     63      -4.4083      1.00000
     64      -4.0966      1.00000
     65      -4.0920      1.00000
     66      -3.4988      1.00000
     67      -3.4640      1.00000
     68      -0.8800      0.56813
     69      -0.0032      0.00000
     70       0.0241      0.00000
     71       0.0905      0.00000
     72       0.1087      0.00000
     73       0.4915      0.00000
     74       0.9655      0.00000
     75       0.9688      0.00000
     76       1.1580      0.00000
     77       1.4847      0.00000
     78       1.5640      0.00000
     79       1.8815      0.00000
     80       2.1797      0.00000
     81       2.2081      0.00000
     82       2.3030      0.00000
     83       2.5370      0.00000
     84       2.7659      0.00000
     85       2.9350      0.00000
     86       3.1808      0.00000
     87       3.2836      0.00000
     88       3.3589      0.00000
     89       3.6137      0.00000
     90       3.6949      0.00000
     91       3.7119      0.00000
     92       3.8122      0.00000
     93       3.9741      0.00000
     94       4.2318      0.00000
     95       4.2708      0.00000
     96       4.4670      0.00000
     97       4.5280      0.00000
     98       4.6207      0.00000
     99       4.7183      0.00000
    100       4.7656      0.00000
    101       4.8137      0.00000
    102       4.8804      0.00000
    103       4.9816      0.00000
    104       5.0161      0.00000
    105       5.1210      0.00000
    106       5.4238      0.00000
    107       5.6013      0.00000
    108       5.7030      0.00000
    109       5.8548      0.00000
    110       5.9992      0.00000
    111       6.0019      0.00000
    112       6.0339      0.00000
    113       6.0922      0.00000
    114       6.1278      0.00000
    115       6.1811      0.00000
    116       6.2054      0.00000
    117       6.2933      0.00000
    118       6.3466      0.00000
    119       6.4859      0.00000
    120       6.5032      0.00000

 k-point     4 :       0.3333    0.0000    0.0000
  band No.  band energies     occupation 
      1     -27.5970      1.00000
      2     -27.5969      1.00000
      3     -27.5717      1.00000
      4     -20.9936      1.00000
      5     -20.4991      1.00000
      6     -20.0123      1.00000
      7     -20.0018      1.00000
      8     -19.0551      1.00000
      9     -19.0354      1.00000
     10     -18.5620      1.00000
     11     -18.1061      1.00000
     12     -18.0887      1.00000
     13     -17.1698      1.00000
     14     -16.7270      1.00000
     15     -16.7215      1.00000
     16     -16.3046      1.00000
     17     -16.3029      1.00000
     18     -15.4558      1.00000
     19     -15.4419      1.00000
     20     -14.2023      1.00000
     21     -14.2017      1.00000
     22     -13.5936      1.00000
     23     -13.5785      1.00000
     24     -13.3612      1.00000
[...]
    118       6.6461      0.00000
    119       6.6650      0.00000
    120       6.6831      0.00000

 k-point    12 :       0.3333    0.3333    0.0000
  band No.  band energies     occupation 
      1     -27.5793      1.00000
      2     -27.5792      1.00000
      3     -27.5513      1.00000
      4     -20.7611      1.00000
      5     -20.6431      1.00000
      6     -20.6427      1.00000
      7     -19.2338      1.00000
      8     -19.2224      1.00000
      9     -19.2194      1.00000
     10     -17.8566      1.00000
     11     -17.8449      1.00000
     12     -17.8199      1.00000
     13     -17.7764      1.00000
     14     -17.7647      1.00000
     15     -17.7621      1.00000
     16     -15.5328      1.00000
     17     -15.5300      1.00000
     18     -15.4807      1.00000
     19     -14.4905      1.00000
     20     -14.4833      1.00000
     21     -14.4828      1.00000
     22     -14.2543      1.00000
     23     -14.2537      1.00000
     24     -12.3010      1.00000
     25     -12.3004      1.00000
     26     -12.2969      1.00000
     27     -12.2921      1.00000
     28     -12.2667      1.00000
     29     -12.2660      1.00000
     30     -12.1796      1.00000
     31      -9.8985      1.00000
     32      -9.8729      1.00000
     33      -9.8721      1.00000
     34      -9.4238      1.00000
     35      -9.4210      1.00000
     36      -9.4155      1.00000
     37      -8.9177      1.00000
     38      -8.6930      1.00000
     39      -8.6918      1.00000
     40      -8.2544      1.00000
     41      -8.2510      1.00000
     42      -8.2457      1.00000
     43      -8.1984      1.00000
     44      -8.1953      1.00000
     45      -8.1888      1.00000
     46      -8.0563      1.00000
     47      -8.0561      1.00000
     48      -8.0540      1.00000
     49      -7.0855      1.00000
     50      -7.0507      1.00000
     51      -7.0393      1.00000
     52      -6.3974      1.00000
     53      -6.3967      1.00000
     54      -6.3401      1.00000
     55      -5.7153      1.00000
     56      -5.7137      1.00000
     57      -5.6779      1.00000
     58      -5.6044      1.00000
     59      -5.5786      1.00000
     60      -5.5058      1.00000
     61      -5.4581      1.00000
     62      -5.4220      1.00000
     63      -5.4145      1.00000
     64      -3.5115      1.00000
     65      -3.5102      1.00000
     66      -3.4204      1.00000
     67      -1.7248      1.00000
     68      -1.7217      1.00000
     69      -0.3125      0.00000
     70      -0.3036      0.00000
     71      -0.2515      0.00000
     72       0.0752      0.00000
     73       1.5259      0.00000
     74       1.5317      0.00000
     75       1.8987      0.00000
     76       1.9046      0.00000
     77       1.9804      0.00000
     78       2.0006      0.00000
     79       2.0541      0.00000
     80       2.0596      0.00000
     81       2.6524      0.00000
     82       2.8275      0.00000
     83       2.8295      0.00000
     84       2.8871      0.00000
     85       2.8874      0.00000
     86       2.9892      0.00000
     87       3.2839      0.00000
     88       3.2882      0.00000
     89       3.4692      0.00000
     90       4.5953      0.00000
     91       4.6379      0.00000
     92       4.6463      0.00000
     93       4.6532      0.00000
     94       4.6656      0.00000
     95       4.6822      0.00000
     96       4.9178      0.00000
     97       4.9192      0.00000
     98       4.9479      0.00000
     99       4.9857      0.00000
    100       4.9857      0.00000
    101       4.9994      0.00000
    102       5.2248      0.00000
    103       5.2275      0.00000
    104       5.3108      0.00000
    105       5.6487      0.00000
    106       5.6492      0.00000
    107       5.6504      0.00000
    108       5.7347      0.00000
    109       5.8637      0.00000
    110       5.8649      0.00000
    111       6.4884      0.00000
    112       6.4899      0.00000
    113       6.4905      0.00000
    114       6.5737      0.00000
    115       6.5798      0.00000
    116       6.5969      0.00000
    117       6.7687      0.00000
    118       6.7886      0.00000
    119       6.8131      0.00000
    120       7.0401      0.00000


--------------------------------------------------------------------------------------------------------


 soft charge-density along one line, spin component           1
         0         1         2         3         4         5         6         7         8         9
 total charge-density along one line
 
 soft charge-density along one line, spin component           2
         0         1         2         3         4         5         6         7         8         9
 total charge-density along one line
 
 pseudopotential strength for first ion, spin component:           1
 10.159   0.017   0.000   0.000   0.000  -0.000  -0.000  -0.000
  0.017  -0.002  -0.000  -0.000  -0.000  -0.000  -0.000  -0.000
  0.000  -0.000  -4.282  -0.000  -0.000  -0.017  -0.000  -0.000
  0.000  -0.000  -0.000  -4.275  -0.000  -0.000  -0.014  -0.000
  0.000  -0.000  -0.000  -0.000  -4.282  -0.000  -0.000  -0.017
 -0.000  -0.000  -0.017  -0.000  -0.000  -0.771  -0.000  -0.000
 -0.000  -0.000  -0.000  -0.014  -0.000  -0.000  -0.771  -0.000
 -0.000  -0.000  -0.000  -0.000  -0.017  -0.000  -0.000  -0.771
 pseudopotential strength for first ion, spin component:           2
 10.159   0.017   0.000   0.000   0.000  -0.000  -0.000  -0.000
  0.017  -0.002  -0.000  -0.000  -0.000  -0.000  -0.000  -0.000
  0.000  -0.000  -4.282  -0.000  -0.000  -0.017  -0.000  -0.000
  0.000  -0.000  -0.000  -4.275  -0.000  -0.000  -0.014  -0.000
  0.000  -0.000  -0.000  -0.000  -4.282  -0.000  -0.000  -0.017
 -0.000  -0.000  -0.017  -0.000  -0.000  -0.771  -0.000  -0.000
 -0.000  -0.000  -0.000  -0.014  -0.000  -0.000  -0.771  -0.000
 -0.000  -0.000  -0.000  -0.000  -0.017  -0.000  -0.000  -0.771
 total augmentation occupancy for first ion, spin component:           1
  1.467  -1.129  -0.001  -0.001  -0.002   0.000   0.000   0.000
 -1.129   1.069  -0.001  -0.002  -0.003  -0.000  -0.000  -0.001
 -0.001  -0.001   1.223  -0.000  -0.001   0.222   0.000  -0.000
 -0.001  -0.002  -0.000   0.942  -0.000   0.000   0.103   0.000
 -0.002  -0.003  -0.001  -0.000   1.221  -0.000   0.000   0.222
  0.000  -0.000   0.222   0.000  -0.000   0.046   0.000   0.000
  0.000  -0.000   0.000   0.103   0.000   0.000   0.013   0.000
  0.000  -0.001  -0.000   0.000   0.222   0.000   0.000   0.046
 total augmentation occupancy for first ion, spin component:           2
  0.000   0.000   0.000   0.000   0.000   0.000  -0.000  -0.000
  0.000   0.000   0.000   0.000   0.000  -0.000   0.000  -0.000
  0.000   0.000  -0.000   0.000  -0.000   0.000   0.000   0.000
  0.000   0.000   0.000   0.000   0.000  -0.000   0.000  -0.000
  0.000   0.000  -0.000   0.000  -0.000   0.000   0.000   0.000
  0.000  -0.000   0.000  -0.000   0.000   0.000  -0.000   0.000
 -0.000   0.000   0.000   0.000   0.000  -0.000   0.000  -0.000
 -0.000  -0.000   0.000  -0.000   0.000   0.000  -0.000   0.000


------------------------ aborting loop because EDIFF is reached ----------------------------------------


    CHARGE:  cpu time    2.1737: real time    2.1757
    FORLOC:  cpu time    0.0210: real time    0.0208
    FORNL :  cpu time    8.6397: real time    8.6500
    STRESS:  cpu time   25.7271: real time   25.7724
    FORCOR:  cpu time    0.2240: real time    0.2243
    FORHAR:  cpu time    0.0430: real time    0.0426
    MIXING:  cpu time    0.0050: real time    0.0053
    OFIELD:  cpu time    0.0000: real time    0.0001

  FORCE on cell =-STRESS in cart. coord.  units (eV):
  Direction    XX          YY          ZZ          XY          YZ          ZX
  --------------------------------------------------------------------------------------
  Alpha Z    74.12057    74.12057    74.12057
  Ewald   18038.28435 18038.28535-22412.22727     0.00087    -0.00000     0.00000
  Hartree 17846.44547 17846.44548-17390.55786     0.00001    -0.00000     0.00000
  E(xc)    -505.00229  -505.00250  -523.30009    -0.00018     0.00000    -0.00001
  Local  -37316.60321-37316.60456 38099.41488    -0.00117     0.00000    -0.00000
  n-local  -136.39714  -136.53225  -127.89692     0.20655    -0.00076    -0.00163
  augment    29.52640    29.52636    30.82404    -0.00003    -0.00003     0.00004
  Kinetic  1972.69544  1972.22140  2249.57241    -0.85756    -0.00235    -0.00259
  Fock        0.00000     0.00000     0.00000     0.00000     0.00000     0.00000
  -------------------------------------------------------------------------------------
  Total       2.76471     2.76471    -0.05024    -0.00000     0.00000     0.00000
  in kB       3.49729     3.49729    -0.06355    -0.00000     0.00000     0.00000
  external pressure =        2.31 kB  Pullay stress =        0.00 kB


 VOLUME and BASIS-vectors are now :
 -----------------------------------------------------------------------------
  energy-cutoff  :      500.00
  volume of cell :     1266.57
      direct lattice vectors                 reciprocal lattice vectors
     9.874234799  0.000000000  0.000000000     0.101273670  0.058470381  0.000000000
    -4.937117399  8.551338177  0.000000000     0.000000000  0.116940762  0.000000000
     0.000000000  0.000000000 15.000000000     0.000000000  0.000000000  0.066666667

  length of vectors
     9.874234799  9.874234798 15.000000000     0.116940762  0.116940762  0.066666667


 FORCES acting on ions
    electron-ion (+dipol)            ewald-force                    non-local-force                 convergence-correction
 -----------------------------------------------------------------------------------------------
   0.579E+01 0.592E+01 0.136E+02   -.595E+01 -.603E+01 -.137E+02   0.142E+00 0.912E-01 0.116E+00   0.180E-02 -.746E-03 -.754E-03
   -.441E-04 0.141E+02 0.201E+02   -.424E-04 -.143E+02 -.204E+02   0.000E+00 0.241E+00 0.271E+00   0.954E-07 -.198E-02 -.306E-03
   -.579E+01 0.592E+01 0.136E+02   0.595E+01 -.603E+01 -.137E+02   -.142E+00 0.912E-01 0.116E+00   -.180E-02 -.746E-03 -.754E-03
   -.421E-04 0.243E-04 0.103E+02   -.445E-04 0.257E-04 -.104E+02   -.520E-17 0.520E-17 0.748E-01   0.176E-06 -.102E-06 0.139E-02
   0.802E+01 0.206E+01 0.136E+02   -.820E+01 -.214E+01 -.137E+02   0.150E+00 0.769E-01 0.116E+00   0.253E-03 0.193E-02 -.754E-03
   0.170E+02 0.981E+01 0.425E+02   -.174E+02 -.101E+02 -.432E+02   0.436E+00 0.252E+00 0.736E+00   0.409E-03 0.236E-03 0.834E-02
   -.170E+02 0.981E+01 0.425E+02   0.174E+02 -.101E+02 -.432E+02   -.436E+00 0.252E+00 0.736E+00   -.409E-03 0.236E-03 0.834E-02
   -.802E+01 0.206E+01 0.136E+02   0.820E+01 -.214E+01 -.137E+02   -.150E+00 0.769E-01 0.116E+00   -.254E-03 0.193E-02 -.754E-03
   -.414E-04 -.165E+01 0.109E+02   -.451E-04 0.165E+01 -.110E+02   0.000E+00 -.954E-02 0.852E-01   -.174E-06 0.125E-02 0.557E-03
   0.122E+02 -.705E+01 0.201E+02   -.124E+02 0.716E+01 -.204E+02   0.209E+00 -.121E+00 0.271E+00   -.171E-02 0.990E-03 -.306E-03
   -.459E-04 -.196E+02 0.425E+02   -.403E-04 0.201E+02 -.432E+02   0.694E-17 -.503E+00 0.736E+00   -.760E-07 -.473E-03 0.834E-02
   -.122E+02 -.705E+01 0.201E+02   0.124E+02 0.716E+01 -.204E+02   -.209E+00 -.121E+00 0.271E+00   0.171E-02 0.990E-03 -.306E-03
   -.143E+01 0.826E+00 0.109E+02   0.143E+01 -.824E+00 -.110E+02   -.827E-02 0.477E-02 0.852E-01   0.108E-02 -.624E-03 0.557E-03
   0.143E+01 0.826E+00 0.109E+02   -.143E+01 -.824E+00 -.110E+02   0.827E-02 0.477E-02 0.852E-01   -.108E-02 -.624E-03 0.557E-03
   0.223E+01 -.798E+01 0.136E+02   -.225E+01 0.817E+01 -.137E+02   0.826E-02 -.168E+00 0.116E+00   -.155E-02 -.118E-02 -.754E-03
   -.223E+01 -.798E+01 0.136E+02   0.225E+01 0.817E+01 -.137E+02   -.826E-02 -.168E+00 0.116E+00   0.155E-02 -.119E-02 -.754E-03
   0.488E+01 0.281E+01 0.121E+02   -.493E+01 -.285E+01 -.122E+02   0.709E-01 0.409E-01 0.110E+00   -.139E-02 -.804E-03 0.180E-03
   0.809E+01 0.145E+02 0.235E+02   -.820E+01 -.148E+02 -.238E+02   0.117E+00 0.328E+00 0.322E+00   -.168E-02 0.291E-03 0.126E-02
   -.809E+01 0.145E+02 0.235E+02   0.820E+01 -.148E+02 -.238E+02   -.117E+00 0.328E+00 0.322E+00   0.168E-02 0.291E-03 0.126E-02
   -.488E+01 0.281E+01 0.121E+02   0.493E+01 -.285E+01 -.122E+02   -.709E-01 0.409E-01 0.110E+00   0.139E-02 -.804E-03 0.180E-03
   -.384E-05 -.152E-01 0.116E+02   0.437E-04 0.584E-01 -.117E+02   0.304E-17 -.397E-01 0.937E-01   0.255E-06 -.201E-02 -.534E-03
   0.166E+02 -.250E+00 0.235E+02   -.170E+02 0.317E+00 -.238E+02   0.343E+00 -.623E-01 0.322E+00   -.587E-03 -.160E-02 0.126E-02
   -.328E-05 0.330E-05 0.713E+02   0.435E-04 -.251E-04 -.728E+02   -.434E-17 0.000E+00 0.149E+01   -.566E-07 0.327E-07 0.134E-01
   -.166E+02 -.250E+00 0.235E+02   0.170E+02 0.317E+00 -.238E+02   -.343E+00 -.623E-01 0.322E+00   0.587E-03 -.160E-02 0.126E-02
   -.514E+01 -.297E+01 0.119E+02   0.527E+01 0.304E+01 -.120E+02   -.108E+00 -.621E-01 0.910E-01   -.102E-02 -.590E-03 0.460E-03
   0.514E+01 -.297E+01 0.119E+02   -.527E+01 0.304E+01 -.120E+02   0.108E+00 -.621E-01 0.910E-01   0.102E-02 -.590E-03 0.460E-03
   0.852E+01 -.143E+02 0.235E+02   -.875E+01 0.145E+02 -.238E+02   0.225E+00 -.266E+00 0.322E+00   0.109E-02 0.131E-02 0.126E-02
   -.852E+01 -.143E+02 0.235E+02   0.875E+01 0.145E+02 -.238E+02   -.225E+00 -.266E+00 0.322E+00   -.109E-02 0.131E-02 0.126E-02
   -.132E-01 0.762E-02 0.116E+02   0.507E-01 -.293E-01 -.117E+02   -.344E-01 0.199E-01 0.937E-01   -.174E-02 0.101E-02 -.534E-03
   -.409E-05 0.594E+01 0.119E+02   0.438E-04 -.608E+01 -.120E+02   0.000E+00 0.124E+00 0.910E-01   -.290E-06 0.118E-02 0.460E-03
   0.132E-01 0.762E-02 0.116E+02   -.506E-01 -.293E-01 -.117E+02   0.344E-01 0.199E-01 0.937E-01   0.174E-02 0.101E-02 -.534E-03
   -.391E-05 -.563E+01 0.121E+02   0.438E-04 0.570E+01 -.122E+02   -.607E-17 -.819E-01 0.110E+00   -.137E-06 0.161E-02 0.180E-03
   -.670E-05 0.359E-05 -.642E+03   0.393E-06 -.227E-06 0.640E+03   -.108E-18 -.217E-18 0.271E+01   -.417E-06 0.241E-06 -.134E-03
 -----------------------------------------------------------------------------------------------
   -.753E-03 0.437E-03 -.111E+02   0.265E-14 0.123E-12 -.227E-12   0.979E-16 0.152E-15 0.111E+02   -.431E-06 0.249E-06 0.437E-01
 
 
 POSITION                                       TOTAL-FORCE (eV/Angst)
 -----------------------------------------------------------------------------------
      1.23311      0.71187      7.50093        -0.015652     -0.022375      0.007758
      3.70284      0.71010      7.50055         0.000000      0.006546      0.005563
      6.17256      0.71187      7.50093         0.015652     -0.022375      0.007758
      8.63996      0.71261      7.49964         0.000000     -0.000000     -0.002557
     -0.00123      2.84981      7.50093        -0.027203     -0.002367      0.007758
      2.46469      2.84821      7.49768         0.018592      0.010734     -0.024125
      4.94099      2.84821      7.49768        -0.018592      0.010734     -0.024125
      7.40690      2.84981      7.50093         0.027203     -0.002367      0.007758
     -1.23428      4.98822      7.49996        -0.000000     -0.012207      0.000546
      1.23210      4.98954      7.50055         0.005669     -0.003273      0.005563
      3.70284      4.99275      7.49768         0.000000     -0.021468     -0.024125
      6.17358      4.98954      7.50055        -0.005669     -0.003273      0.005563
     -2.46861      7.12615      7.49996        -0.010571      0.006103      0.000546
      0.00005      7.12615      7.49996         0.010571      0.006103      0.000546
      2.46850      7.12750      7.50093        -0.011552      0.024742      0.007758
      4.93718      7.12750      7.50093         0.011552      0.024742      0.007758
     -0.00064      1.42485      7.49984         0.011508      0.006644      0.002694
      2.46737      1.42194      7.50188        -0.000315     -0.006328     -0.005161
      4.93830      1.42194      7.50188         0.000315     -0.006328     -0.005161
      7.40632      1.42485      7.49984        -0.011508      0.006644      0.002694
     -1.23428      3.56365      7.50012         0.000000      0.001485      0.009177
      1.23084      3.56367      7.50188        -0.005638      0.002891     -0.005161
      3.70284      3.56306      7.48076         0.000000     -0.000000     -0.044837
      6.17483      3.56367      7.50188         0.005638      0.002891     -0.005161
     -2.46776      5.70136      7.50013         0.015177      0.008762      0.003464
     -0.00080      5.70136      7.50013        -0.015177      0.008762      0.003464
      2.46631      5.70356      7.50188        -0.005323      0.003437     -0.005161
      4.93936      5.70356      7.50188         0.005323      0.003437     -0.005161
     -3.70232      7.83843      7.50012         0.001286     -0.000742      0.009177
     -1.23428      7.83780      7.50013         0.000000     -0.017525      0.003464
      1.23376      7.83843      7.50012        -0.001286     -0.000742      0.009177
      3.70284      7.83947      7.49984        -0.000000     -0.013288      0.002694
      3.70284      3.56306      9.99785         0.000000     -0.000000      0.039856
 -----------------------------------------------------------------------------------
    total drift:                               -0.000753      0.000437     -0.010164


--------------------------------------------------------------------------------------------------------



  FREE ENERGIE OF THE ION-ELECTRON SYSTEM (eV)
  ---------------------------------------------------
  free  energy   TOTEN  =      -295.70465448 eV

  energy  without entropy=     -295.68801178  energy(sigma->0) =     -295.69633313
 
 d Force = 0.4585611E-03[ 0.302E-03, 0.615E-03]  d Energy = 0.3345503E-03 0.124E-03
 d Force = 0.1752506E+01[ 0.175E+01, 0.175E+01]  d Ewald  = 0.1752504E+01 0.161E-05


--------------------------------------------------------------------------------------------------------


    POTLOK:  cpu time    0.2810: real time    0.2805


--------------------------------------------------------------------------------------------------------


 ******************************
 ***ISIF             0  ****Zhiping
 ******************************
 Conjugate gradient step on ions:
 trial-energy change:   -0.000335  1 .order   -0.000459   -0.000615   -0.000302
  (g-gl).g = 0.156E-02      g.g   = 0.164E-02  gl.gl    = 0.140E-02
 g(Force)  = 0.164E-02   g(Stress)= 0.000E+00 ortho     = 0.780E-04
 gamma     =   1.11703
 trial     =   0.35607
 opt step  =   0.69984  (harmonic =   0.69984) maximal distance =0.00488203
 next E    =  -295.704924   (d E  =  -0.00060)


--------------------------------------------------------------------------------------------------------


  
 reached required accuracy - stopping structural energy minimisation
 writing wavefunctions
     LOOP+:  cpu time  162.3613: real time  184.6735
    4ORBIT:  cpu time    0.0000: real time    0.0000

 total amount of memory used by VASP MPI-rank0   158217. kBytes
=======================================================================

   base      :      30000. kBytes
   nonlr-proj:       5798. kBytes
   fftplans  :       5659. kBytes
   grid      :      54212. kBytes
   one-center:        202. kBytes
   wavefun   :      62346. kBytes
 
  
  
 General timing and accounting informations for this job:
 ========================================================
  
                  Total CPU time used (sec):     1120.218
                            User time (sec):     1095.515
                          System time (sec):       24.702
                         Elapsed time (sec):     1225.334
  
                   Maximum memory used (kb):           0.
                   Average memory used (kb):           0.
  
                          Minor page faults:      2879450
                          Major page faults:           52
                 Voluntary context switches:        13652
