  33  33   0   0
  0.5117450E+02  0.9874235E-09  0.9874235E-09  0.2000000E-08  0.5000000E-15
  1.000000000000000E-004
  CAR 
 graphene_metal                          
      7.62408468    -29.80889147  301     -1.27464476      1.00000000
    -29.809  0.0000E+00  0.0000E+00  0.0000E+00  0.0000E+00
    -29.684  0.0000E+00  0.0000E+00  0.0000E+00  0.0000E+00
    -29.559  0.0000E+00  0.0000E+00  0.0000E+00  0.0000E+00
    -29.435  0.0000E+00  0.0000E+00  0.0000E+00  0.0000E+00
    -29.310  0.0000E+00  0.0000E+00  0.0000E+00  0.0000E+00
    -29.185  0.0000E+00  0.0000E+00  0.0000E+00  0.0000E+00
    -29.060  0.0000E+00  0.0000E+00  0.0000E+00  0.0000E+00
    -28.935  0.0000E+00  0.0000E+00  0.0000E+00  0.0000E+00
    -28.811  0.0000E+00  0.0000E+00  0.0000E+00  0.0000E+00
    -28.686  0.0000E+00  0.0000E+00  0.0000E+00  0.0000E+00
    -28.561  0.0000E+00  0.0000E+00  0.0000E+00  0.0000E+00
    -28.436  0.0000E+00  0.0000E+00  0.0000E+00  0.0000E+00
    -28.312  0.8194E-09  0.8029E-07  0.1022E-09  0.1002E-07
    -28.187  0.3168E-01  0.2776E+00  0.3953E-02  0.3463E-01
    -28.062  0.1665E+02  0.2125E+02  0.2082E+01  0.2686E+01
    -27.937  0.7360E+01  0.2519E+01  0.3000E+01  0.3000E+01
    -27.812  0.7036E-03  0.2094E-04  0.3000E+01  0.3000E+01
    -27.688  0.6101E-12  0.0000E+00  0.3000E+01  0.3000E+01
    -27.563  0.0000E+00  0.0000E+00  0.3000E+01  0.3000E+01
    -27.438  0.0000E+00  0.0000E+00  0.3000E+01  0.3000E+01
    -27.313  0.0000E+00  0.0000E+00  0.3000E+01  0.3000E+01
    -27.189  0.0000E+00  0.0000E+00  0.3000E+01  0.3000E+01
    -27.064  0.0000E+00  0.0000E+00  0.3000E+01  0.3000E+01
    -26.939  0.0000E+00  0.0000E+00  0.3000E+01  0.3000E+01
    -26.814  0.0000E+00  0.0000E+00  0.3000E+01  0.3000E+01
    -26.689  0.0000E+00  0.0000E+00  0.3000E+01  0.3000E+01
    -26.565  0.0000E+00  0.0000E+00  0.3000E+01  0.3000E+01
    -26.440  0.0000E+00  0.0000E+00  0.3000E+01  0.3000E+01
    -26.315  0.0000E+00  0.0000E+00  0.3000E+01  0.3000E+01
    -26.190  0.0000E+00  0.0000E+00  0.3000E+01  0.3000E+01
    -26.066  0.0000E+00  0.0000E+00  0.3000E+01  0.3000E+01
    -25.941  0.0000E+00  0.0000E+00  0.3000E+01  0.3000E+01
    -25.816  0.0000E+00  0.0000E+00  0.3000E+01  0.3000E+01
    -25.691  0.0000E+00  0.0000E+00  0.3000E+01  0.3000E+01
    -25.566  0.0000E+00  0.0000E+00  0.3000E+01  0.3000E+01
    -25.442  0.0000E+00  0.0000E+00  0.3000E+01  0.3000E+01
    -25.317  0.0000E+00  0.0000E+00  0.3000E+01  0.3000E+01
    -25.192  0.0000E+00  0.0000E+00  0.3000E+01  0.3000E+01
    -25.067  0.0000E+00  0.0000E+00  0.3000E+01  0.3000E+01
    -24.943  0.0000E+00  0.0000E+00  0.3000E+01  0.3000E+01
    -24.818  0.0000E+00  0.0000E+00  0.3000E+01  0.3000E+01
    -24.693  0.0000E+00  0.0000E+00  0.3000E+01  0.3000E+01
    -24.568  0.0000E+00  0.0000E+00  0.3000E+01  0.3000E+01
    -24.443  0.0000E+00  0.0000E+00  0.3000E+01  0.3000E+01
    -24.319  0.0000E+00  0.0000E+00  0.3000E+01  0.3000E+01
    -24.194  0.0000E+00  0.0000E+00  0.3000E+01  0.3000E+01
    -24.069  0.0000E+00  0.0000E+00  0.3000E+01  0.3000E+01
    -23.944  0.0000E+00  0.0000E+00  0.3000E+01  0.3000E+01
    -23.820  0.0000E+00  0.0000E+00  0.3000E+01  0.3000E+01
    -23.695  0.0000E+00  0.0000E+00  0.3000E+01  0.3000E+01
    -23.570  0.0000E+00  0.0000E+00  0.3000E+01  0.3000E+01
    -23.445  0.0000E+00  0.0000E+00  0.3000E+01  0.3000E+01
    -23.321  0.0000E+00  0.0000E+00  0.3000E+01  0.3000E+01
    -23.196  0.0000E+00  0.0000E+00  0.3000E+01  0.3000E+01
    -23.071  0.0000E+00  0.0000E+00  0.3000E+01  0.3000E+01
    -22.946  0.0000E+00  0.0000E+00  0.3000E+01  0.3000E+01
    -22.821  0.0000E+00  0.0000E+00  0.3000E+01  0.3000E+01
    -22.697  0.0000E+00  0.0000E+00  0.3000E+01  0.3000E+01
    -22.572  0.0000E+00  0.0000E+00  0.3000E+01  0.3000E+01
    -22.447  0.0000E+00  0.0000E+00  0.3000E+01  0.3000E+01
    -22.322  0.0000E+00  0.0000E+00  0.3000E+01  0.3000E+01
    -22.198  0.0000E+00  0.0000E+00  0.3000E+01  0.3000E+01
    -22.073  0.0000E+00  0.0000E+00  0.3000E+01  0.3000E+01
    -21.948  0.0000E+00  0.0000E+00  0.3000E+01  0.3000E+01
    -21.823  0.2672E-12  0.3099E-12  0.3000E+01  0.3000E+01
    -21.698  0.6492E-04  0.7036E-04  0.3000E+01  0.3000E+01
    -21.574  0.3356E+00  0.3439E+00  0.3042E+01  0.3043E+01
    -21.449  0.2285E+01  0.2292E+01  0.3327E+01  0.3329E+01
    -21.324  0.2647E+01  0.2649E+01  0.3657E+01  0.3660E+01
    -21.199  0.2506E+01  0.2498E+01  0.3970E+01  0.3971E+01
    -21.075  0.1792E+01  0.1793E+01  0.4193E+01  0.4195E+01
    -20.950  0.2567E+01  0.2564E+01  0.4514E+01  0.4515E+01
    -20.825  0.2713E+01  0.2717E+01  0.4852E+01  0.4854E+01
    -20.700  0.2085E+01  0.2088E+01  0.5112E+01  0.5114E+01
    -20.575  0.2985E+01  0.2979E+01  0.5485E+01  0.5486E+01
    -20.451  0.2140E+01  0.2151E+01  0.5752E+01  0.5754E+01
    -20.326  0.2728E+01  0.2715E+01  0.6092E+01  0.6093E+01
    -20.201  0.2302E+01  0.2314E+01  0.6380E+01  0.6382E+01
    -20.076  0.2713E+01  0.2703E+01  0.6718E+01  0.6719E+01
    -19.952  0.1865E+01  0.1872E+01  0.6951E+01  0.6953E+01
    -19.827  0.3338E+01  0.3333E+01  0.7367E+01  0.7369E+01
    -19.702  0.2018E+01  0.2017E+01  0.7619E+01  0.7620E+01
    -19.577  0.2795E+01  0.2804E+01  0.7968E+01  0.7970E+01
    -19.452  0.2603E+01  0.2593E+01  0.8293E+01  0.8294E+01
    -19.328  0.2014E+01  0.2020E+01  0.8544E+01  0.8546E+01
    -19.203  0.3003E+01  0.3003E+01  0.8919E+01  0.8921E+01
    -19.078  0.2541E+01  0.2536E+01  0.9236E+01  0.9237E+01
    -18.953  0.1900E+01  0.1908E+01  0.9473E+01  0.9475E+01
    -18.829  0.3343E+01  0.3335E+01  0.9890E+01  0.9891E+01
    -18.704  0.2498E+01  0.2498E+01  0.1020E+02  0.1020E+02
    -18.579  0.1579E+01  0.1582E+01  0.1040E+02  0.1040E+02
    -18.454  0.3980E+01  0.3983E+01  0.1090E+02  0.1090E+02
    -18.329  0.2043E+01  0.2042E+01  0.1115E+02  0.1115E+02
    -18.205  0.1936E+01  0.1930E+01  0.1139E+02  0.1139E+02
    -18.080  0.3284E+01  0.3295E+01  0.1180E+02  0.1180E+02
    -17.955  0.3050E+01  0.3039E+01  0.1218E+02  0.1218E+02
    -17.830  0.1754E+01  0.1757E+01  0.1240E+02  0.1240E+02
    -17.706  0.2795E+01  0.2806E+01  0.1275E+02  0.1275E+02
    -17.581  0.3145E+01  0.3138E+01  0.1314E+02  0.1314E+02
    -17.456  0.2636E+01  0.2629E+01  0.1347E+02  0.1347E+02
    -17.331  0.1548E+01  0.1556E+01  0.1366E+02  0.1367E+02
    -17.206  0.4116E+01  0.4119E+01  0.1418E+02  0.1418E+02
    -17.082  0.2470E+01  0.2467E+01  0.1449E+02  0.1449E+02
    -16.957  0.2419E+01  0.2407E+01  0.1479E+02  0.1479E+02
    -16.832  0.2363E+01  0.2384E+01  0.1508E+02  0.1509E+02
    -16.707  0.4179E+01  0.4171E+01  0.1560E+02  0.1561E+02
    -16.583  0.2612E+01  0.2612E+01  0.1593E+02  0.1593E+02
    -16.458  0.2170E+01  0.2161E+01  0.1620E+02  0.1620E+02
    -16.333  0.4337E+01  0.4359E+01  0.1674E+02  0.1675E+02
    -16.208  0.4442E+01  0.4428E+01  0.1730E+02  0.1730E+02
    -16.083  0.2355E+01  0.2347E+01  0.1759E+02  0.1759E+02
    -15.959  0.5412E+00  0.5385E+00  0.1766E+02  0.1766E+02
    -15.834  0.3878E+01  0.3898E+01  0.1814E+02  0.1814E+02
    -15.709  0.1336E+01  0.1313E+01  0.1831E+02  0.1831E+02
    -15.584  0.3103E+00  0.3145E+00  0.1835E+02  0.1835E+02
    -15.460  0.1280E+01  0.1292E+01  0.1851E+02  0.1851E+02
    -15.335  0.1986E+01  0.1971E+01  0.1875E+02  0.1875E+02
    -15.210  0.1066E+01  0.1074E+01  0.1889E+02  0.1889E+02
    -15.085  0.2692E+01  0.2694E+01  0.1922E+02  0.1923E+02
    -14.960  0.2741E+01  0.2744E+01  0.1957E+02  0.1957E+02
    -14.836  0.2897E+01  0.2890E+01  0.1993E+02  0.1993E+02
    -14.711  0.1791E+01  0.1797E+01  0.2015E+02  0.2015E+02
    -14.586  0.4167E+01  0.4166E+01  0.2067E+02  0.2067E+02
    -14.461  0.1619E+01  0.1622E+01  0.2087E+02  0.2087E+02
    -14.337  0.5576E+01  0.5576E+01  0.2157E+02  0.2157E+02
    -14.212  0.2640E+01  0.2636E+01  0.2190E+02  0.2190E+02
    -14.087  0.2780E+01  0.2784E+01  0.2224E+02  0.2225E+02
    -13.962  0.3943E+01  0.3934E+01  0.2274E+02  0.2274E+02
    -13.837  0.1813E+01  0.1821E+01  0.2296E+02  0.2296E+02
    -13.713  0.3424E+01  0.3421E+01  0.2339E+02  0.2339E+02
    -13.588  0.2505E+01  0.2499E+01  0.2370E+02  0.2370E+02
    -13.463  0.2018E+01  0.2027E+01  0.2395E+02  0.2396E+02
    -13.338  0.3223E+01  0.3220E+01  0.2436E+02  0.2436E+02
    -13.214  0.2164E+01  0.2159E+01  0.2463E+02  0.2463E+02
    -13.089  0.1531E+01  0.1538E+01  0.2482E+02  0.2482E+02
    -12.964  0.3722E+01  0.3717E+01  0.2528E+02  0.2528E+02
    -12.839  0.1001E+01  0.9991E+00  0.2541E+02  0.2541E+02
    -12.714  0.2819E+01  0.2828E+01  0.2576E+02  0.2576E+02
    -12.590  0.2191E+01  0.2185E+01  0.2603E+02  0.2603E+02
    -12.465  0.2624E+01  0.2626E+01  0.2636E+02  0.2636E+02
    -12.340  0.2778E+01  0.2774E+01  0.2671E+02  0.2671E+02
    -12.215  0.2805E+01  0.2813E+01  0.2706E+02  0.2706E+02
    -12.091  0.3253E+01  0.3240E+01  0.2746E+02  0.2746E+02
    -11.966  0.2893E+01  0.2899E+01  0.2782E+02  0.2782E+02
    -11.841  0.2691E+01  0.2689E+01  0.2816E+02  0.2816E+02
    -11.716  0.2893E+01  0.2901E+01  0.2852E+02  0.2852E+02
    -11.592  0.3653E+01  0.3650E+01  0.2898E+02  0.2898E+02
    -11.467  0.2643E+01  0.2632E+01  0.2931E+02  0.2931E+02
    -11.342  0.1128E+01  0.1144E+01  0.2945E+02  0.2945E+02
    -11.217  0.6190E+01  0.6185E+01  0.3022E+02  0.3022E+02
    -11.092  0.1807E+01  0.1798E+01  0.3044E+02  0.3044E+02
    -10.968  0.1978E+01  0.1987E+01  0.3069E+02  0.3069E+02
    -10.843  0.4547E+01  0.4546E+01  0.3126E+02  0.3126E+02
    -10.718  0.2895E+01  0.2890E+01  0.3162E+02  0.3162E+02
    -10.593  0.2711E+01  0.2723E+01  0.3196E+02  0.3196E+02
    -10.469  0.4711E+01  0.4696E+01  0.3255E+02  0.3255E+02
    -10.344  0.1234E+01  0.1241E+01  0.3270E+02  0.3270E+02
    -10.219  0.4501E+01  0.4514E+01  0.3326E+02  0.3326E+02
    -10.094  0.4125E+01  0.4110E+01  0.3378E+02  0.3378E+02
     -9.969  0.2189E+01  0.2190E+01  0.3405E+02  0.3405E+02
     -9.845  0.3274E+01  0.3282E+01  0.3446E+02  0.3446E+02
     -9.720  0.6494E+01  0.6532E+01  0.3527E+02  0.3527E+02
     -9.595  0.4443E+01  0.4443E+01  0.3582E+02  0.3583E+02
     -9.470  0.6845E+01  0.6870E+01  0.3668E+02  0.3669E+02
     -9.346  0.5374E+01  0.5331E+01  0.3735E+02  0.3735E+02
     -9.221  0.5171E+01  0.5162E+01  0.3799E+02  0.3800E+02
     -9.096  0.6989E+01  0.7011E+01  0.3886E+02  0.3887E+02
     -8.971  0.4817E+01  0.4816E+01  0.3947E+02  0.3947E+02
     -8.846  0.8552E+01  0.8556E+01  0.4053E+02  0.4054E+02
     -8.722  0.6147E+01  0.6148E+01  0.4130E+02  0.4131E+02
     -8.597  0.8482E+01  0.8470E+01  0.4236E+02  0.4236E+02
     -8.472  0.6446E+01  0.6466E+01  0.4316E+02  0.4317E+02
     -8.347  0.1202E+02  0.1199E+02  0.4466E+02  0.4467E+02
     -8.223  0.6260E+01  0.6256E+01  0.4544E+02  0.4545E+02
     -8.098  0.7149E+01  0.7173E+01  0.4633E+02  0.4634E+02
     -7.973  0.7020E+01  0.7003E+01  0.4721E+02  0.4722E+02
     -7.848  0.5207E+01  0.5221E+01  0.4786E+02  0.4787E+02
     -7.723  0.7606E+01  0.7596E+01  0.4881E+02  0.4881E+02
     -7.599  0.4465E+01  0.4459E+01  0.4937E+02  0.4937E+02
     -7.474  0.5711E+01  0.5732E+01  0.5008E+02  0.5009E+02
     -7.349  0.6118E+01  0.6102E+01  0.5084E+02  0.5085E+02
     -7.224  0.5366E+01  0.5349E+01  0.5151E+02  0.5152E+02
     -7.100  0.4455E+01  0.4480E+01  0.5207E+02  0.5207E+02
     -6.975  0.6518E+01  0.6509E+01  0.5288E+02  0.5289E+02
     -6.850  0.3693E+01  0.3690E+01  0.5334E+02  0.5335E+02
     -6.725  0.5751E+01  0.5757E+01  0.5406E+02  0.5407E+02
     -6.600  0.4969E+01  0.4960E+01  0.5468E+02  0.5468E+02
     -6.476  0.3988E+01  0.3997E+01  0.5518E+02  0.5518E+02
     -6.351  0.5777E+01  0.5747E+01  0.5590E+02  0.5590E+02
     -6.226  0.3605E+01  0.3657E+01  0.5635E+02  0.5636E+02
     -6.101  0.5556E+01  0.5529E+01  0.5704E+02  0.5705E+02
     -5.977  0.4590E+01  0.4576E+01  0.5761E+02  0.5762E+02
     -5.852  0.2919E+01  0.2929E+01  0.5798E+02  0.5798E+02
     -5.727  0.6449E+01  0.6482E+01  0.5878E+02  0.5879E+02
     -5.602  0.3790E+01  0.3769E+01  0.5926E+02  0.5926E+02
     -5.477  0.4353E+01  0.4313E+01  0.5980E+02  0.5980E+02
     -5.353  0.3985E+01  0.4046E+01  0.6030E+02  0.6030E+02
     -5.228  0.5983E+01  0.5979E+01  0.6104E+02  0.6105E+02
     -5.103  0.3956E+01  0.3921E+01  0.6154E+02  0.6154E+02
     -4.978  0.2060E+01  0.2062E+01  0.6179E+02  0.6180E+02
     -4.854  0.4044E+01  0.4117E+01  0.6230E+02  0.6231E+02
     -4.729  0.3991E+01  0.3930E+01  0.6280E+02  0.6280E+02
     -4.604  0.2391E+01  0.2383E+01  0.6309E+02  0.6310E+02
     -4.479  0.3867E+01  0.3899E+01  0.6358E+02  0.6359E+02
     -4.354  0.4925E+01  0.4923E+01  0.6419E+02  0.6420E+02
     -4.230  0.4659E+01  0.4619E+01  0.6477E+02  0.6478E+02
     -4.105  0.1306E+01  0.1305E+01  0.6494E+02  0.6494E+02
     -3.980  0.1490E+01  0.1515E+01  0.6512E+02  0.6513E+02
     -3.855  0.4360E+01  0.4332E+01  0.6567E+02  0.6567E+02
     -3.731  0.6718E+00  0.6698E+00  0.6575E+02  0.6575E+02
     -3.606  0.1116E+01  0.1114E+01  0.6589E+02  0.6589E+02
     -3.481  0.1734E+01  0.1755E+01  0.6611E+02  0.6611E+02
     -3.356  0.2196E+01  0.2162E+01  0.6638E+02  0.6638E+02
     -3.231  0.2312E+00  0.2430E+00  0.6641E+02  0.6641E+02
     -3.107  0.9845E+00  0.9737E+00  0.6653E+02  0.6653E+02
     -2.982  0.1311E+01  0.1328E+01  0.6669E+02  0.6670E+02
     -2.857  0.6596E+00  0.6494E+00  0.6678E+02  0.6678E+02
     -2.732  0.4032E+00  0.3916E+00  0.6683E+02  0.6683E+02
     -2.608  0.2451E+00  0.2639E+00  0.6686E+02  0.6686E+02
     -2.483  0.9388E+00  0.9205E+00  0.6697E+02  0.6697E+02
     -2.358  0.4012E-02  0.3397E-02  0.6698E+02  0.6698E+02
     -2.233  0.7296E-03  0.8697E-03  0.6698E+02  0.6698E+02
     -2.108  0.2898E+00  0.2968E+00  0.6701E+02  0.6701E+02
     -1.984  0.1052E+00  0.9814E-01  0.6702E+02  0.6702E+02
     -1.859  0.7547E-05  0.6505E-05  0.6702E+02  0.6702E+02
     -1.734  0.1277E+00  0.1405E+00  0.6704E+02  0.6704E+02
     -1.609  0.1047E+01  0.1036E+01  0.6717E+02  0.6717E+02
     -1.485  0.1200E+00  0.1278E+00  0.6719E+02  0.6719E+02
     -1.360  0.5192E+00  0.5406E+00  0.6725E+02  0.6725E+02
     -1.235  0.1463E+01  0.6823E+01  0.6743E+02  0.6811E+02
     -1.110  0.1247E+01  0.3879E+01  0.6759E+02  0.6859E+02
     -0.985  0.4680E+00  0.4662E+00  0.6765E+02  0.6865E+02
     -0.861  0.1341E+01  0.1393E+01  0.6781E+02  0.6882E+02
     -0.736  0.3760E+01  0.3715E+01  0.6828E+02  0.6929E+02
     -0.611  0.3609E+01  0.1230E+01  0.6873E+02  0.6944E+02
     -0.486  0.9700E+01  0.4384E+01  0.6994E+02  0.6999E+02
     -0.362  0.6928E+01  0.6701E+01  0.7081E+02  0.7082E+02
     -0.237  0.2918E+01  0.2861E+01  0.7117E+02  0.7118E+02
     -0.112  0.3430E+01  0.3427E+01  0.7160E+02  0.7161E+02
      0.013  0.2359E+01  0.2344E+01  0.7190E+02  0.7190E+02
      0.137  0.3251E+01  0.3269E+01  0.7230E+02  0.7231E+02
      0.262  0.2384E+01  0.2370E+01  0.7260E+02  0.7260E+02
      0.387  0.2739E+01  0.2741E+01  0.7294E+02  0.7294E+02
      0.512  0.1354E+01  0.2452E+01  0.7311E+02  0.7325E+02
      0.637  0.3507E+01  0.8202E+01  0.7355E+02  0.7427E+02
      0.761  0.1980E+01  0.4673E+01  0.7379E+02  0.7486E+02
      0.886  0.2771E+01  0.3449E+01  0.7414E+02  0.7529E+02
      1.011  0.6769E+01  0.8217E+01  0.7498E+02  0.7631E+02
      1.136  0.3103E+01  0.6991E+01  0.7537E+02  0.7719E+02
      1.260  0.5489E+01  0.5595E+01  0.7606E+02  0.7788E+02
      1.385  0.4672E+01  0.2163E+01  0.7664E+02  0.7815E+02
      1.510  0.5821E+01  0.3742E+01  0.7737E+02  0.7862E+02
      1.635  0.5973E+01  0.8007E+01  0.7811E+02  0.7962E+02
      1.760  0.6590E+01  0.6797E+01  0.7893E+02  0.8047E+02
      1.884  0.6385E+01  0.6740E+01  0.7973E+02  0.8131E+02
      2.009  0.6857E+01  0.7078E+01  0.8059E+02  0.8219E+02
      2.134  0.6716E+01  0.8954E+01  0.8142E+02  0.8331E+02
      2.259  0.5407E+01  0.4932E+01  0.8210E+02  0.8392E+02
      2.383  0.1015E+02  0.1061E+02  0.8337E+02  0.8525E+02
      2.508  0.6321E+01  0.8673E+01  0.8415E+02  0.8633E+02
      2.633  0.7866E+01  0.8063E+01  0.8514E+02  0.8734E+02
      2.758  0.8637E+01  0.9167E+01  0.8621E+02  0.8848E+02
      2.883  0.9301E+01  0.8321E+01  0.8737E+02  0.8952E+02
      3.007  0.9663E+01  0.1097E+02  0.8858E+02  0.9089E+02
      3.132  0.8684E+01  0.1070E+02  0.8966E+02  0.9222E+02
      3.257  0.9788E+01  0.8925E+01  0.9088E+02  0.9334E+02
      3.382  0.1061E+02  0.8235E+01  0.9221E+02  0.9436E+02
      3.506  0.8808E+01  0.1114E+02  0.9331E+02  0.9575E+02
      3.631  0.1036E+02  0.1224E+02  0.9460E+02  0.9728E+02
      3.756  0.1005E+02  0.9888E+01  0.9585E+02  0.9851E+02
      3.881  0.1098E+02  0.8866E+01  0.9722E+02  0.9962E+02
      4.006  0.1016E+02  0.1113E+02  0.9849E+02  0.1010E+03
      4.130  0.1120E+02  0.1107E+02  0.9989E+02  0.1024E+03
      4.255  0.9349E+01  0.1058E+02  0.1011E+03  0.1037E+03
      4.380  0.1040E+02  0.1023E+02  0.1024E+03  0.1050E+03
      4.505  0.1122E+02  0.1079E+02  0.1038E+03  0.1063E+03
      4.629  0.9231E+01  0.1187E+02  0.1049E+03  0.1078E+03
      4.754  0.1159E+02  0.1121E+02  0.1064E+03  0.1092E+03
      4.879  0.1200E+02  0.1309E+02  0.1078E+03  0.1108E+03
      5.004  0.1146E+02  0.1075E+02  0.1093E+03  0.1122E+03
      5.129  0.1303E+02  0.1409E+02  0.1109E+03  0.1139E+03
      5.253  0.1062E+02  0.1455E+02  0.1122E+03  0.1158E+03
      5.378  0.1894E+02  0.1800E+02  0.1146E+03  0.1180E+03
      5.503  0.1592E+02  0.1288E+02  0.1166E+03  0.1196E+03
      5.628  0.1640E+02  0.2852E+01  0.1186E+03  0.1200E+03
      5.752  0.1001E+02  0.2457E+00  0.1199E+03  0.1200E+03
      5.877  0.8032E+00  0.2388E-04  0.1200E+03  0.1200E+03
      6.002  0.1762E+00  0.3618E-13  0.1200E+03  0.1200E+03
      6.127  0.2445E-02  0.0000E+00  0.1200E+03  0.1200E+03
      6.252  0.7610E-09  0.0000E+00  0.1200E+03  0.1200E+03
      6.376  0.0000E+00  0.0000E+00  0.1200E+03  0.1200E+03
      6.501  0.0000E+00  0.0000E+00  0.1200E+03  0.1200E+03
      6.626  0.0000E+00  0.0000E+00  0.1200E+03  0.1200E+03
      6.751  0.0000E+00  0.0000E+00  0.1200E+03  0.1200E+03
      6.875  0.0000E+00  0.0000E+00  0.1200E+03  0.1200E+03
      7.000  0.0000E+00  0.0000E+00  0.1200E+03  0.1200E+03
      7.125  0.0000E+00  0.0000E+00  0.1200E+03  0.1200E+03
      7.250  0.0000E+00  0.0000E+00  0.1200E+03  0.1200E+03
      7.375  0.0000E+00  0.0000E+00  0.1200E+03  0.1200E+03
      7.499  0.0000E+00  0.0000E+00  0.1200E+03  0.1200E+03
      7.624  0.0000E+00  0.0000E+00  0.1200E+03  0.1200E+03
