 vasp.5.4.4.18Apr17-6-g9f103f2a35 (build Apr 11 2019 18:12:45) complex          
  
 executed on             LinuxIFC date 2019.07.29  20:32:34
 running on   24 total cores
 distrk:  each k-point on   24 cores,    1 groups
 distr:  one band on NCORES_PER_BAND=   1 cores,   24 groups


--------------------------------------------------------------------------------------------------------


 INCAR:
 POTCAR:   PAW_PBE C 08Apr2002                    
 POTCAR:    PAW_PBE Na_pv 19Sep2006               

 ----------------------------------------------------------------------------- 
|                                                                             |
|           W    W    AA    RRRRR   N    N  II  N    N   GGGG   !!!           |
|           W    W   A  A   R    R  NN   N  II  NN   N  G    G  !!!           |
|           W    W  A    A  R    R  N N  N  II  N N  N  G       !!!           |
|           W WW W  AAAAAA  RRRRR   N  N N  II  N  N N  G  GGG   !            |
|           WW  WW  A    A  R   R   N   NN  II  N   NN  G    G                |
|           W    W  A    A  R    R  N    N  II  N    N   GGGG   !!!           |
|                                                                             |
|      For optimal performance we recommend to set                            |
|        NCORE= 4 - approx SQRT( number of cores)                             |
|      NCORE specifies how many cores store one orbital (NPAR=cpu/NCORE).     |
|      This setting can  greatly improve the performance of VASP for DFT.     |
|      The default,   NCORE=1            might be grossly inefficient         |
|      on modern multi-core architectures or massively parallel machines.     |
|      Do your own testing !!!!                                               |
|      Unfortunately you need to use the default for GW and RPA calculations. |
|      (for HF NCORE is supported but not extensively tested yet)             |
|                                                                             |
 ----------------------------------------------------------------------------- 

 POTCAR:   PAW_PBE C 08Apr2002                    
   VRHFIN =C: s2p2                                                              
   LEXCH  = PE                                                                  
   EATOM  =   147.1560 eV,   10.8157 Ry                                         
                                                                                
   TITEL  = PAW_PBE C 08Apr2002                                                 
   LULTRA =        F    use ultrasoft PP ?                                      
   IUNSCR =        0    unscreen: 0-lin 1-nonlin 2-no                           
   RPACOR =     .000    partial core radius                                     
   POMASS =   12.011; ZVAL   =    4.000    mass and valenz                      
   RCORE  =    1.500    outmost cutoff radius                                   
   RWIGS  =    1.630; RWIGS  =     .863    wigner-seitz radius (au A)           
   ENMAX  =  400.000; ENMIN  =  300.000 eV                                      
   ICORE  =        2    local potential                                         
   LCOR   =        T    correct aug charges                                     
   LPAW   =        T    paw PP                                                  
   EAUG   =  644.873                                                            
   DEXC   =     .000                                                            
   RMAX   =    2.266    core radius for proj-oper                               
   RAUG   =    1.300    factor for augmentation sphere                          
   RDEP   =    1.501    radius for radial grids                                 
   RDEPT  =    1.300    core radius for aug-charge                              
   QCUT   =   -5.516; QGAM   =   11.032    optimization parameters              
                                                                                
   Description                                                                  
     l     E      TYP  RCUT    TYP  RCUT                                        
     0   .000     23  1.200                                                     
     0   .000     23  1.200                                                     
     1   .000     23  1.500                                                     
     1  2.500     23  1.500                                                     
     2   .000      7  1.500                                                     
  local pseudopotential read in
  atomic valenz-charges read in
  non local Contribution for L=           0  read in
    real space projection operators read in
  non local Contribution for L=           0  read in
    real space projection operators read in
  non local Contribution for L=           1  read in
    real space projection operators read in
  non local Contribution for L=           1  read in
    real space projection operators read in
    PAW grid and wavefunctions read in
 
   number of l-projection  operators is LMAX  =           4
   number of lm-projection operators is LMMAX =           8
 
 POTCAR:    PAW_PBE Na_pv 19Sep2006               
   VRHFIN =Na: p6s1                                                             
   LEXCH  = PE                                                                  
   EATOM  =   766.0439 eV,   56.3026 Ry                                         
                                                                                
   TITEL  = PAW_PBE Na_pv 19Sep2006                                             
   LULTRA =        F    use ultrasoft PP ?                                      
   IUNSCR =        1    unscreen: 0-lin 1-nonlin 2-no                           
   RPACOR =    1.800    partial core radius                                     
   POMASS =   22.990; ZVAL   =    7.000    mass and valenz                      
   RCORE  =    2.200    outmost cutoff radius                                   
   RWIGS  =    2.200; RWIGS  =    1.164    wigner-seitz radius (au A)           
   ENMAX  =  259.561; ENMIN  =  194.671 eV                                      
   ICORE  =        2    local potential                                         
   LCOR   =        T    correct aug charges                                     
   LPAW   =        T    paw PP                                                  
   EAUG   =  368.056                                                            
   DEXC   =     .000                                                            
   RMAX   =    2.862    core radius for proj-oper                               
   RAUG   =    1.300    factor for augmentation sphere                          
   RDEP   =    2.259    radius for radial grids                                 
   QCUT   =   -4.368; QGAM   =    8.735    optimization parameters              
                                                                                
   Description                                                                  
     l     E      TYP  RCUT    TYP  RCUT                                        
     1   .000     23  2.000                                                     
     1   .500     23  2.000                                                     
     0   .000     23  2.200                                                     
     0  2.500     23  2.200                                                     
     2  -.100     23  2.200                                                     
  local pseudopotential read in
  partial core-charges read in
  atomic valenz-charges read in
  non local Contribution for L=           1  read in
    real space projection operators read in
  non local Contribution for L=           1  read in
    real space projection operators read in
  non local Contribution for L=           0  read in
    real space projection operators read in
  non local Contribution for L=           0  read in
    real space projection operators read in
    PAW grid and wavefunctions read in
 
   number of l-projection  operators is LMAX  =           4
   number of lm-projection operators is LMMAX =           8
 
 Optimization of the real space projectors (new method)

 maximal supplied QI-value         = 25.13
 optimisation between [QCUT,QGAM] = [ 11.31, 28.40] = [ 35.82,225.87] Ry 
 Optimized for a Real-space Cutoff    0.93 Angstroem

   l    n(q)    QCUT    max X(q) W(low)/X(q) W(high)/X(q)  e(spline) 
   0      8    11.310     5.582    0.36E-04    0.13E-04    0.14E-07
   0      8    11.310    69.432    0.28E-03    0.21E-03    0.11E-06
   1      7    11.310     2.780    0.37E-04    0.49E-04    0.22E-07
   1      7    11.310     4.549    0.27E-03    0.38E-03    0.91E-07
 Optimization of the real space projectors (new method)

 maximal supplied QI-value         = 17.01
 optimisation between [QCUT,QGAM] = [ 11.40, 28.57] = [ 36.36,228.61] Ry 
 Optimized for a Real-space Cutoff    1.25 Angstroem

   l    n(q)    QCUT    max X(q) W(low)/X(q) W(high)/X(q)  e(spline) 
   1     10    11.395     4.977    0.23E-05    0.17E-05    0.20E-07
   1     10    11.395     7.312    0.34E-03    0.16E-03    0.87E-06
   0     11    11.395    36.258    0.15E-04    0.97E-06    0.30E-07
   0     11    11.395    45.649    0.12E-04    0.89E-05    0.80E-07
 PAW_PBE C 08Apr2002                    :
 energy of atom  1       EATOM= -147.1560
 kinetic energy error for atom=    0.0076 (will be added to EATOM!!)
  PAW_PBE Na_pv 19Sep2006               :
 energy of atom  2       EATOM= -766.0439
 kinetic energy error for atom=    0.0021 (will be added to EATOM!!)
 
 
 POSCAR: graphene+Na                             
  positions in direct lattice
  velocities in cartesian coordinates
 exchange correlation table for  LEXCH =        8
   RHO(1)=    0.500       N(1)  =     2000
   RHO(2)=  100.500       N(2)  =     4000
 


--------------------------------------------------------------------------------------------------------


 ion  position               nearest neighbor table
   1  0.166  0.083  0.500-  29 1.42  18 1.42  17 1.43
   2  0.417  0.083  0.500-  30 1.42  18 1.42  19 1.43
   3  0.667  0.083  0.500-  19 1.42  31 1.42  20 1.42
   4  0.917  0.083  0.500-  17 1.42  32 1.42  20 1.42
   5  0.166  0.333  0.500-  17 1.42  21 1.42  22 1.43
   6  0.416  0.333  0.499-  18 1.43  22 1.43  23 1.43
   7  0.667  0.333  0.500-  24 1.42  19 1.42  23 1.43
   8  0.917  0.333  0.500-  24 1.42  21 1.42  20 1.42
   9  0.166  0.583  0.500-  25 1.42  26 1.42  21 1.43
  10  0.416  0.584  0.499-  26 1.43  27 1.43  22 1.43
  11  0.667  0.584  0.499-  28 1.43  27 1.43  23 1.43
  12  0.917  0.583  0.500-  25 1.42  28 1.42  24 1.43
  13  0.167  0.833  0.500-  25 1.42  29 1.42  30 1.42
  14  0.417  0.834  0.500-  30 1.42  26 1.42  31 1.43
  15  0.667  0.834  0.500-  32 1.42  31 1.42  27 1.43
  16  0.917  0.834  0.500-  29 1.42  28 1.42  32 1.43
  17  0.083  0.166  0.500-   4 1.42   5 1.42   1 1.43
  18  0.333  0.166  0.500-   2 1.42   1 1.42   6 1.43
  19  0.583  0.166  0.500-   3 1.42   7 1.42   2 1.43
  20  0.833  0.167  0.500-   3 1.42   4 1.42   8 1.42
  21  0.083  0.417  0.500-   8 1.42   5 1.42   9 1.43
  22  0.333  0.416  0.499-   5 1.43   6 1.43  10 1.43
  23  0.584  0.416  0.499-   7 1.43  11 1.43   6 1.43
  24  0.834  0.417  0.500-   8 1.42   7 1.42  12 1.43
  25  0.083  0.667  0.500-   9 1.42  12 1.42  13 1.42
  26  0.333  0.667  0.500-  14 1.42   9 1.42  10 1.43
  27  0.584  0.667  0.499-  15 1.43  11 1.43  10 1.43
  28  0.834  0.667  0.500-  12 1.42  16 1.42  11 1.43
  29  0.083  0.917  0.500-   1 1.42  16 1.42  13 1.42
  30  0.333  0.917  0.500-  14 1.42   2 1.42  13 1.42
  31  0.583  0.917  0.500-   3 1.42  15 1.42  14 1.43
  32  0.834  0.917  0.500-   4 1.42  15 1.42  16 1.43
  33  0.500  0.500  0.615-
 
  LATTYP: Found a hexagonal cell.
 ALAT       =     9.8742351532
 C/A-ratio  =     2.0254733344
  
  Lattice vectors:
  
 A1 = (   9.8742351532,   0.0000000000,   0.0000000000)
 A2 = (  -4.9371175766,   8.5513384856,   0.0000000000)
 A3 = (   0.0000000000,   0.0000000000,  20.0000000000)


Analysis of symmetry for initial positions (statically):
=====================================================================
 Subroutine PRICEL returns:
 Original cell was already a primitive cell.
 

 Routine SETGRP: Setting up the symmetry group for a 
 hexagonal supercell.


 Subroutine GETGRP returns: Found  1 space group operations
 (whereof  1 operations were pure point group operations)
 out of a pool of 24 trial point group operations.


The static configuration has the point symmetry C_1 .


Analysis of symmetry for dynamics (positions and initial velocities):
=====================================================================
 Subroutine PRICEL returns:
 Original cell was already a primitive cell.
 

 Routine SETGRP: Setting up the symmetry group for a 
 hexagonal supercell.


 Subroutine GETGRP returns: Found  1 space group operations
 (whereof  1 operations were pure point group operations)
 out of a pool of 24 trial point group operations.


The dynamic configuration has the point symmetry C_1 .


Analysis of constrained symmetry for selective dynamics:
=====================================================================
 Subroutine PRICEL returns:
 Original cell was already a primitive cell.
 

 Routine SETGRP: Setting up the symmetry group for a 
 hexagonal supercell.


 Subroutine GETGRP returns: Found  1 space group operations
 (whereof  1 operations were pure point group operations)
 out of a pool of 24 trial point group operations.


The constrained configuration has the point symmetry C_1 .


Analysis of structural, dynamic, and magnetic symmetry:
=====================================================================
 Subroutine PRICEL returns:
 Original cell was already a primitive cell.
 

 Routine SETGRP: Setting up the symmetry group for a 
 hexagonal supercell.


 Subroutine GETGRP returns: Found  1 space group operations
 (whereof  1 operations were pure point group operations)
 out of a pool of 24 trial point group operations.


The magnetic configuration has the point symmetry C_1 .


 Subroutine INISYM returns: Found  1 space group operations
 (whereof  1 operations are pure point group operations),
 and found     1 'primitive' translations

 
 
 KPOINTS: Automatic mesh                          

Automatic generation of k-mesh.
Space group operators:
 irot       det(A)        alpha          n_x          n_y          n_z        tau_x        tau_y        tau_z
    1     1.000000     0.000000     1.000000     0.000000     0.000000     0.000000     0.000000     0.000000
 
 Subroutine IBZKPT returns following result:
 ===========================================
 
 Found     41 irreducible k-points:
 
 Following reciprocal coordinates:
            Coordinates               Weight
  0.000000  0.000000  0.000000      1.000000
  0.111111  0.000000  0.000000      2.000000
  0.222222  0.000000  0.000000      2.000000
  0.333333  0.000000  0.000000      2.000000
  0.444444  0.000000  0.000000      2.000000
  0.000000  0.111111  0.000000      2.000000
  0.111111  0.111111  0.000000      2.000000
  0.222222  0.111111  0.000000      2.000000
  0.333333  0.111111  0.000000      2.000000
  0.444444  0.111111  0.000000      2.000000
 -0.444444  0.111111  0.000000      2.000000
 -0.333333  0.111111  0.000000      2.000000
 -0.222222  0.111111  0.000000      2.000000
 -0.111111  0.111111  0.000000      2.000000
  0.000000  0.222222  0.000000      2.000000
  0.111111  0.222222  0.000000      2.000000
  0.222222  0.222222  0.000000      2.000000
  0.333333  0.222222  0.000000      2.000000
  0.444444  0.222222  0.000000      2.000000
 -0.444444  0.222222  0.000000      2.000000
 -0.333333  0.222222  0.000000      2.000000
 -0.222222  0.222222  0.000000      2.000000
 -0.111111  0.222222  0.000000      2.000000
  0.000000  0.333333  0.000000      2.000000
  0.111111  0.333333  0.000000      2.000000
  0.222222  0.333333  0.000000      2.000000
  0.333333  0.333333  0.000000      2.000000
  0.444444  0.333333  0.000000      2.000000
 -0.444444  0.333333  0.000000      2.000000
 -0.333333  0.333333  0.000000      2.000000
 -0.222222  0.333333  0.000000      2.000000
 -0.111111  0.333333  0.000000      2.000000
  0.000000  0.444444  0.000000      2.000000
  0.111111  0.444444  0.000000      2.000000
  0.222222  0.444444  0.000000      2.000000
  0.333333  0.444444  0.000000      2.000000
  0.444444  0.444444  0.000000      2.000000
 -0.444444  0.444444  0.000000      2.000000
 -0.333333  0.444444  0.000000      2.000000
 -0.222222  0.444444  0.000000      2.000000
 -0.111111  0.444444  0.000000      2.000000
 
 Following cartesian coordinates:
            Coordinates               Weight
  0.000000  0.000000  0.000000      1.000000
  0.011253  0.006497  0.000000      2.000000
  0.022505  0.012993  0.000000      2.000000
  0.033758  0.019490  0.000000      2.000000
  0.045011  0.025987  0.000000      2.000000
  0.000000  0.012993  0.000000      2.000000
  0.011253  0.019490  0.000000      2.000000
  0.022505  0.025987  0.000000      2.000000
  0.033758  0.032484  0.000000      2.000000
  0.045011  0.038980  0.000000      2.000000
 -0.045011 -0.012993  0.000000      2.000000
 -0.033758 -0.006497  0.000000      2.000000
 -0.022505 -0.000000  0.000000      2.000000
 -0.011253  0.006497  0.000000      2.000000
  0.000000  0.025987  0.000000      2.000000
  0.011253  0.032484  0.000000      2.000000
  0.022505  0.038980  0.000000      2.000000
  0.033758  0.045477  0.000000      2.000000
  0.045011  0.051974  0.000000      2.000000
 -0.045011  0.000000  0.000000      2.000000
 -0.033758  0.006497  0.000000      2.000000
 -0.022505  0.012993  0.000000      2.000000
 -0.011253  0.019490  0.000000      2.000000
  0.000000  0.038980  0.000000      2.000000
  0.011253  0.045477  0.000000      2.000000
  0.022505  0.051974  0.000000      2.000000
  0.033758  0.058470  0.000000      2.000000
  0.045011  0.064967  0.000000      2.000000
 -0.045011  0.012993  0.000000      2.000000
 -0.033758  0.019490  0.000000      2.000000
 -0.022505  0.025987  0.000000      2.000000
 -0.011253  0.032484  0.000000      2.000000
  0.000000  0.051974  0.000000      2.000000
  0.011253  0.058470  0.000000      2.000000
  0.022505  0.064967  0.000000      2.000000
  0.033758  0.071464  0.000000      2.000000
  0.045011  0.077961  0.000000      2.000000
 -0.045011  0.025987  0.000000      2.000000
 -0.033758  0.032484  0.000000      2.000000
 -0.022505  0.038980  0.000000      2.000000
 -0.011253  0.045477  0.000000      2.000000
 


--------------------------------------------------------------------------------------------------------




 Dimension of arrays:
   k-points           NKPTS =     41   k-points in BZ     NKDIM =     41   number of bands    NBANDS=    120
   number of dos      NEDOS =    301   number of ions     NIONS =     33
   non local maximal  LDIM  =      4   non local SUM 2l+1 LMDIM =      8
   total plane-waves  NPLWV = ******
   max r-space proj   IRMAX =  13706   max aug-charges    IRDMAX=   5891
   dimension x,y,z NGX =   112 NGY =  112 NGZ =  224
   dimension x,y,z NGXF=   112 NGYF=  112 NGZF=  224
   support grid    NGXF=   112 NGYF=  112 NGZF=  224
   ions per type =              32   1
   NGX,Y,Z   is equivalent  to a cutoff of  18.86, 18.86, 18.62 a.u.
   NGXF,Y,Z  is equivalent  to a cutoff of  18.86, 18.86, 18.62 a.u.

 Based on PREC, I would recommend the following setting:
   dimension x,y,z NGX =    72 NGY =   72 NGZ =  150

 SYSTEM =  graphene_metal                          
 POSCAR =  graphene+Na                             

 Startparameter for this run:
   NWRITE =      2    write-flag & timer
   PREC   = high      normal or accurate (medium, high low for compatibility)
   ISTART =      1    job   : 0-new  1-cont  2-samecut
   ICHARG =      1    charge: 1-file 2-atom 10-const
   ISPIN  =      2    spin polarized calculation?
   LNONCOLLINEAR =      F non collinear calculations
   LSORBIT =      F    spin-orbit coupling
   INIWAV =      1    electr: 0-lowe 1-rand  2-diag
   LASPH  =      F    aspherical Exc in radial PAW
   METAGGA=      F    non-selfconsistent MetaGGA calc.

 Electronic Relaxation 1
   ENCUT  =  500.0 eV  36.75 Ry    6.06 a.u.  18.00 18.00 36.46*2*pi/ulx,y,z
   ENINI  =  500.0     initial cutoff
   ENAUG  =  644.9 eV  augmentation charge cutoff
   NELM   =    500;   NELMIN=  2; NELMDL=  0     # of ELM steps 
   EDIFF  = 0.1E-05   stopping-criterion for ELM
   LREAL  =      T    real-space projection
   NLSPLINE    = F    spline interpolate recip. space projectors
   LCOMPAT=      F    compatible to vasp.4.4
   GGA_COMPAT  = T    GGA compatible to vasp.4.4-vasp.4.6
   LMAXPAW     = -100 max onsite density
   LMAXMIX     =    2 max onsite mixed and CHGCAR
   VOSKOWN=      0    Vosko Wilk Nusair interpolation
   ROPT   =   -0.00040  -0.00040
 Ionic relaxation
   EDIFFG = 0.1E-04   stopping-criterion for IOM
   NSW    =      0    number of steps for IOM
   NBLOCK =      1;   KBLOCK =      1    inner block; outer block 
   IBRION =     -1    ionic relax: 0-MD 1-quasi-New 2-CG
   NFREE  =      0    steps in history (QN), initial steepest desc. (CG)
   ISIF   =      2    stress and relaxation
   IWAVPR =     10    prediction:  0-non 1-charg 2-wave 3-comb
   ISYM   =      2    0-nonsym 1-usesym 2-fastsym
   LCORR  =      T    Harris-Foulkes like correction to forces

   POTIM  = 0.5000    time-step for ionic-motion
   TEIN   =    0.0    initial temperature
   TEBEG  =    0.0;   TEEND  =   0.0 temperature during run
   SMASS  =  -3.00    Nose mass-parameter (am)
   estimated Nose-frequenzy (Omega)   =  0.10E-29 period in steps =****** mass=  -0.223E-26a.u.
   SCALEE = 1.0000    scale energy and forces
   NPACO  =    256;   APACO  = 16.0  distance and # of slots for P.C.
   PSTRESS=    0.0 pullay stress

  Mass of Ions in am
   POMASS =  12.01 22.99
  Ionic Valenz
   ZVAL   =   4.00  7.00
  Atomic Wigner-Seitz radii
   RWIGS  =  -1.00 -1.00
  virtual crystal weights 
   VCA    =   1.00  1.00
   NELECT =     135.0000    total number of electrons
   NUPDOWN=      -1.0000    fix difference up-down

 DOS related values:
   EMIN   =  10.00;   EMAX   =-10.00  energy-range for DOS
   EFERMI =   0.00
   ISMEAR =     0;   SIGMA  =   0.05  broadening in eV -4-tet -1-fermi 0-gaus

 Electronic relaxation 2 (details)
   IALGO  =     38    algorithm
   LDIAG  =      T    sub-space diagonalisation (order eigenvalues)
   LSUBROT=      F    optimize rotation matrix (better conditioning)
   TURBO    =      0    0=normal 1=particle mesh
   IRESTART =      0    0=no restart 2=restart with 2 vectors
   NREBOOT  =      0    no. of reboots
   NMIN     =      0    reboot dimension
   EREF     =   0.00    reference energy to select bands
   IMIX   =      4    mixing-type and parameters
     AMIX     =   0.40;   BMIX     =  1.00
     AMIX_MAG =   1.60;   BMIX_MAG =  1.00
     AMIN     =   0.10
     WC   =   100.;   INIMIX=   1;  MIXPRE=   1;  MAXMIX= -45

 Intra band minimization:
   WEIMIN = 0.0000     energy-eigenvalue tresh-hold
   EBREAK =  0.21E-08  absolut break condition
   DEPER  =   0.30     relativ break condition  

   TIME   =   0.40     timestep for ELM

  volume/ion in A,a.u.               =      51.17       345.34
  Fermi-wavevector in a.u.,A,eV,Ry     =   0.705229  1.332690  6.766832  0.497348
  Thomas-Fermi vector in A             =   1.790684
 
 Write flags
   LWAVE        =      T    write WAVECAR
   LDOWNSAMPLE  =      F    k-point downsampling of WAVECAR
   LCHARG       =      T    write CHGCAR
   LVTOT        =      F    write LOCPOT, total local potential
   LVHAR        =      F    write LOCPOT, Hartree potential only
   LELF         =      T    write electronic localiz. function (ELF)
   LORBIT       =      0    0 simple, 1 ext, 2 COOP (PROOUT), +10 PAW based schemes


 Dipole corrections
   LMONO  =      F    monopole corrections only (constant potential shift)
   LDIPOL =      T    correct potential (dipole corrections)
   IDIPOL =      3    1-x, 2-y, 3-z, 4-all directions 
   EPSILON=  1.0000000 bulk dielectric constant

 Exchange correlation treatment:
   GGA     =    --    GGA type
   LEXCH   =     8    internal setting for exchange type
   VOSKOWN=      0    Vosko Wilk Nusair interpolation
   LHFCALC =     F    Hartree Fock is set to
   LHFONE  =     F    Hartree Fock one center treatment
   AEXX    =    0.0000 exact exchange contribution

 Linear response parameters
   LEPSILON=     F    determine dielectric tensor
   LRPA    =     F    only Hartree local field effects (RPA)
   LNABLA  =     F    use nabla operator in PAW spheres
   LVEL    =     F    velocity operator in full k-point grid
   LINTERFAST=   F  fast interpolation
   KINTER  =     0    interpolate to denser k-point grid
   CSHIFT  =0.1000    complex shift for real part using Kramers Kronig
   OMEGAMAX=  -1.0    maximum frequency
   DEG_THRESHOLD= 0.2000000E-02 threshold for treating states as degnerate
   RTIME   =   -0.100 relaxation time in fs
  (WPLASMAI=    0.000 imaginary part of plasma frequency in eV, 0.658/RTIME)
   DFIELD  = 0.0000000 0.0000000 0.0000000 field for delta impulse in time
 
 Orbital magnetization related:
   ORBITALMAG=     F  switch on orbital magnetization
   LCHIMAG   =     F  perturbation theory with respect to B field
   DQ        =  0.001000  dq finite difference perturbation B field
   LLRAUG    =     F  two centre corrections for induced B field



--------------------------------------------------------------------------------------------------------


 Static calculation
 charge density and potential will be updated during run
 spin polarized calculation
 Variant of blocked Davidson
 Davidson routine will perform the subspace rotation
 perform sub-space diagonalisation
    after iterative eigenvector-optimisation
 modified Broyden-mixing scheme, WC =      100.0
 initial mixing is a Kerker type mixing with AMIX =  0.4000 and BMIX =      1.0000
 Hartree-type preconditioning will be used
 using additional bands           52
 real space projection scheme for non local part
 use partial core corrections
 calculate Harris-corrections to forces 
   (improved forces if not selfconsistent)
 use gradient corrections 
 use of overlap-Matrix (Vanderbilt PP)
 Gauss-broadening in eV      SIGMA  =   0.05


--------------------------------------------------------------------------------------------------------


  energy-cutoff  :      500.00
  volume of cell :     1688.76
      direct lattice vectors                 reciprocal lattice vectors
     9.874235153  0.000000000  0.000000000     0.101273667  0.058470379  0.000000000
    -4.937117577  8.551338486  0.000000000     0.000000000  0.116940757  0.000000000
     0.000000000  0.000000000 20.000000000     0.000000000  0.000000000  0.050000000

  length of vectors
     9.874235153  9.874235153 20.000000000     0.116940757  0.116940757  0.050000000


 
 old parameters found on file WAVECAR:
  energy-cutoff  :      500.00
  volume of cell :     1688.76
      direct lattice vectors                 reciprocal lattice vectors
     9.874235153  0.000000000  0.000000000     0.101273667  0.058470379  0.000000000
    -4.937117577  8.551338486  0.000000000     0.000000000  0.116940757  0.000000000
     0.000000000  0.000000000 20.000000000     0.000000000  0.000000000  0.050000000

  length of vectors

 
 k-points in units of 2pi/SCALE and weight: Automatic mesh                          
   0.00000000  0.00000000  0.00000000       0.012
   0.01125263  0.00649671  0.00000000       0.025
   0.02250526  0.01299342  0.00000000       0.025
   0.03375789  0.01949013  0.00000000       0.025
   0.04501052  0.02598683  0.00000000       0.025
   0.00000000  0.01299342  0.00000000       0.025
   0.01125263  0.01949013  0.00000000       0.025
   0.02250526  0.02598683  0.00000000       0.025
   0.03375789  0.03248354  0.00000000       0.025
   0.04501052  0.03898025  0.00000000       0.025
  -0.04501052 -0.01299342  0.00000000       0.025
  -0.03375789 -0.00649671  0.00000000       0.025
  -0.02250526 -0.00000000  0.00000000       0.025
  -0.01125263  0.00649671  0.00000000       0.025
   0.00000000  0.02598683  0.00000000       0.025
   0.01125263  0.03248354  0.00000000       0.025
   0.02250526  0.03898025  0.00000000       0.025
   0.03375789  0.04547696  0.00000000       0.025
   0.04501052  0.05197367  0.00000000       0.025
  -0.04501052  0.00000000  0.00000000       0.025
  -0.03375789  0.00649671  0.00000000       0.025
  -0.02250526  0.01299342  0.00000000       0.025
  -0.01125263  0.01949013  0.00000000       0.025
   0.00000000  0.03898025  0.00000000       0.025
   0.01125263  0.04547696  0.00000000       0.025
   0.02250526  0.05197367  0.00000000       0.025
   0.03375789  0.05847038  0.00000000       0.025
   0.04501052  0.06496709  0.00000000       0.025
  -0.04501052  0.01299342  0.00000000       0.025
  -0.03375789  0.01949013  0.00000000       0.025
  -0.02250526  0.02598683  0.00000000       0.025
  -0.01125263  0.03248354  0.00000000       0.025
   0.00000000  0.05197367  0.00000000       0.025
   0.01125263  0.05847038  0.00000000       0.025
   0.02250526  0.06496709  0.00000000       0.025
   0.03375789  0.07146380  0.00000000       0.025
   0.04501052  0.07796050  0.00000000       0.025
  -0.04501052  0.02598683  0.00000000       0.025
  -0.03375789  0.03248354  0.00000000       0.025
  -0.02250526  0.03898025  0.00000000       0.025
  -0.01125263  0.04547696  0.00000000       0.025
 
 k-points in reciprocal lattice and weights: Automatic mesh                          
   0.00000000  0.00000000  0.00000000       0.012
   0.11111111  0.00000000  0.00000000       0.025
   0.22222222  0.00000000  0.00000000       0.025
   0.33333333  0.00000000  0.00000000       0.025
   0.44444444  0.00000000  0.00000000       0.025
   0.00000000  0.11111111  0.00000000       0.025
   0.11111111  0.11111111  0.00000000       0.025
   0.22222222  0.11111111  0.00000000       0.025
   0.33333333  0.11111111  0.00000000       0.025
   0.44444444  0.11111111  0.00000000       0.025
  -0.44444444  0.11111111  0.00000000       0.025
  -0.33333333  0.11111111  0.00000000       0.025
  -0.22222222  0.11111111  0.00000000       0.025
  -0.11111111  0.11111111  0.00000000       0.025
   0.00000000  0.22222222  0.00000000       0.025
   0.11111111  0.22222222  0.00000000       0.025
   0.22222222  0.22222222  0.00000000       0.025
   0.33333333  0.22222222  0.00000000       0.025
   0.44444444  0.22222222  0.00000000       0.025
  -0.44444444  0.22222222  0.00000000       0.025
  -0.33333333  0.22222222  0.00000000       0.025
  -0.22222222  0.22222222  0.00000000       0.025
  -0.11111111  0.22222222  0.00000000       0.025
   0.00000000  0.33333333  0.00000000       0.025
   0.11111111  0.33333333  0.00000000       0.025
   0.22222222  0.33333333  0.00000000       0.025
   0.33333333  0.33333333  0.00000000       0.025
   0.44444444  0.33333333  0.00000000       0.025
  -0.44444444  0.33333333  0.00000000       0.025
  -0.33333333  0.33333333  0.00000000       0.025
  -0.22222222  0.33333333  0.00000000       0.025
  -0.11111111  0.33333333  0.00000000       0.025
   0.00000000  0.44444444  0.00000000       0.025
   0.11111111  0.44444444  0.00000000       0.025
   0.22222222  0.44444444  0.00000000       0.025
   0.33333333  0.44444444  0.00000000       0.025
   0.44444444  0.44444444  0.00000000       0.025
  -0.44444444  0.44444444  0.00000000       0.025
  -0.33333333  0.44444444  0.00000000       0.025
  -0.22222222  0.44444444  0.00000000       0.025
  -0.11111111  0.44444444  0.00000000       0.025
 
 position of ions in fractional coordinates (direct lattice) 
   0.16647518  0.08315087  0.50000000
   0.41667537  0.08315076  0.49997437
   0.66671650  0.08335870  0.50000000
   0.91664183  0.08335826  0.50008616
   0.16610479  0.33305197  0.49978934
   0.41637835  0.33275755  0.49915571
   0.66694816  0.33305189  0.50000000
   0.91664144  0.33328375  0.50010917
   0.16647517  0.58332486  0.49999609
   0.41637829  0.58362172  0.49918330
   0.66724248  0.58362164  0.49915816
   0.91684911  0.58332457  0.49997861
   0.16666649  0.83333333  0.50000057
   0.41667496  0.83352477  0.49998966
   0.66694814  0.83389548  0.49978569
   0.91684906  0.83352477  0.50000000
   0.08315010  0.16647490  0.50000000
   0.33305307  0.16610452  0.49977525
   0.58332426  0.16647545  0.50003825
   0.83333319  0.16666663  0.50003104
   0.08315065  0.41667550  0.50002052
   0.33275681  0.41637753  0.49916998
   0.58362013  0.41638001  0.49921548
   0.83352450  0.41667579  0.50006388
   0.08335882  0.66671700  0.50000000
   0.33305140  0.66694854  0.49979251
   0.58362234  0.66724286  0.49917347
   0.83389569  0.66694694  0.49977368
   0.08335836  0.91664160  0.50007978
   0.33328300  0.91664114  0.50000000
   0.58332475  0.91684964  0.49999068
   0.83352513  0.91684991  0.50000000
   0.50000000  0.50000000  0.61493496
 
 position of ions in cartesian coordinates  (Angst):
   1.23328951  0.71105121 10.00000000
   3.70382555  0.71105027  9.99948738
   6.17176375  0.71282850 10.00000000
   8.63958742  0.71282467 10.00172318
  -0.00415897  2.84804013  9.99578683
   2.46855454  2.84552248  9.98311429
   4.94128660  2.84803941 10.00000000
   7.40567214  2.85002212 10.00218346
  -1.23612840  4.98820832  9.99992172
   1.23000808  4.99074687  9.98366595
   3.70710049  4.99074623  9.98316313
   6.17324176  4.98820582  9.99957230
  -2.46856053  7.12611539 10.00001147
  -0.00086325  7.12775246  9.99979321
   2.46856271  7.13092251  9.99571371
   4.93797349  7.12775241 10.00000000
  -0.00086248  1.42358319 10.00000000
   2.46856680  1.42041601  9.99550506
   4.93797205  1.42358793 10.00076492
   7.40567514  1.42522273 10.00062070
  -1.23612688  3.56313323 10.00041033
   1.23001415  3.56058518  9.98339961
   3.70708538  3.56060636  9.98430964
   6.17323956  3.56313574 10.00127762
  -2.46855564  5.70132272 10.00000000
  -0.00417549  5.70330273  9.99585014
   2.46856781  5.70581955  9.98346948
   4.94128669  5.70328905  9.99547356
  -3.70246725  7.83851256 10.00159564
  -1.23465039  7.83850862 10.00000000
   1.23329130  7.84029160  9.99981369
   3.70382735  7.84029390 10.00000000
   2.46855879  4.27566924 12.29869923
 


--------------------------------------------------------------------------------------------------------


 k-point  1 :   0.0000 0.0000 0.0000  plane waves:   42745
 k-point  2 :   0.1111 0.0000 0.0000  plane waves:   42799
 k-point  3 :   0.2222 0.0000 0.0000  plane waves:   42837
 k-point  4 :   0.3333 0.0000 0.0000  plane waves:   42905
 k-point  5 :   0.4444 0.0000 0.0000  plane waves:   42894
 k-point  6 :   0.0000 0.1111 0.0000  plane waves:   42799
 k-point  7 :   0.1111 0.1111 0.0000  plane waves:   42888
 k-point  8 :   0.2222 0.1111 0.0000  plane waves:   42878
 k-point  9 :   0.3333 0.1111 0.0000  plane waves:   42876
 k-point 10 :   0.4444 0.1111 0.0000  plane waves:   42906
 k-point 11 :  -0.4444 0.1111 0.0000  plane waves:   42876
 k-point 12 :  -0.3333 0.1111 0.0000  plane waves:   42878
 k-point 13 :  -0.2222 0.1111 0.0000  plane waves:   42888
 k-point 14 :  -0.1111 0.1111 0.0000  plane waves:   42799
 k-point 15 :   0.0000 0.2222 0.0000  plane waves:   42837
 k-point 16 :   0.1111 0.2222 0.0000  plane waves:   42878
 k-point 17 :   0.2222 0.2222 0.0000  plane waves:   42886
 k-point 18 :   0.3333 0.2222 0.0000  plane waves:   42887
 k-point 19 :   0.4444 0.2222 0.0000  plane waves:   42887
 k-point 20 :  -0.4444 0.2222 0.0000  plane waves:   42886
 k-point 21 :  -0.3333 0.2222 0.0000  plane waves:   42878
 k-point 22 :  -0.2222 0.2222 0.0000  plane waves:   42837
 k-point 23 :  -0.1111 0.2222 0.0000  plane waves:   42888
 k-point 24 :   0.0000 0.3333 0.0000  plane waves:   42905
 k-point 25 :   0.1111 0.3333 0.0000  plane waves:   42876
 k-point 26 :   0.2222 0.3333 0.0000  plane waves:   42887
 k-point 27 :   0.3333 0.3333 0.0000  plane waves:   42816
 k-point 28 :   0.4444 0.3333 0.0000  plane waves:   42887
 k-point 29 :  -0.4444 0.3333 0.0000  plane waves:   42876
 k-point 30 :  -0.3333 0.3333 0.0000  plane waves:   42905
 k-point 31 :  -0.2222 0.3333 0.0000  plane waves:   42878
 k-point 32 :  -0.1111 0.3333 0.0000  plane waves:   42878
 k-point 33 :   0.0000 0.4444 0.0000  plane waves:   42894
 k-point 34 :   0.1111 0.4444 0.0000  plane waves:   42906
 k-point 35 :   0.2222 0.4444 0.0000  plane waves:   42887
 k-point 36 :   0.3333 0.4444 0.0000  plane waves:   42887
 k-point 37 :   0.4444 0.4444 0.0000  plane waves:   42906
 k-point 38 :  -0.4444 0.4444 0.0000  plane waves:   42894
 k-point 39 :  -0.3333 0.4444 0.0000  plane waves:   42876
 k-point 40 :  -0.2222 0.4444 0.0000  plane waves:   42886
 k-point 41 :  -0.1111 0.4444 0.0000  plane waves:   42876

 maximum and minimum number of plane-waves per node :     42906    42745

 maximum number of plane-waves:     42906
 maximum index in each direction: 
   IXMAX=   18   IYMAX=   18   IZMAX=   36
   IXMIN=  -18   IYMIN=  -18   IZMIN=  -36


 serial   3D FFT for wavefunctions
 parallel 3D FFT for charge:
    minimum data exchange during FFTs selected (reduces bandwidth)


 total amount of memory used by VASP MPI-rank0   586528. kBytes
=======================================================================

   base      :      30000. kBytes
   nonlr-proj:      20989. kBytes
   fftplans  :      16807. kBytes
   grid      :     235296. kBytes
   one-center:        202. kBytes
   wavefun   :     283234. kBytes
 
     INWAV:  cpu time   30.4294: real time   30.5371
 Broyden mixing: mesh for mixing (old mesh)
   NGX = 37   NGY = 37   NGZ = 73
  (NGX  =112   NGY  =112   NGZ  =224)
  gives a total of  99937 points

 initial charge density was supplied:
 number of electron     134.9999915 magnetization      -0.3429334
 keeping initial charge density in first step


--------------------------------------------------------------------------------------------------------


 Maximum index for non-local projection operator        13270
 Maximum index for augmentation-charges          188 (set IRDMAX)


--------------------------------------------------------------------------------------------------------


 First call to EWALD:  gamma=   0.149
 Maximum number of real-space cells 4x 4x 2
 Maximum number of reciprocal cells 2x 2x 4

    FEWALD:  cpu time    0.0020: real time    0.0023


--------------------------------------- Iteration      1(   1)  ---------------------------------------


    POTLOK:  cpu time    0.5709: real time    0.5761
    SETDIJ:  cpu time    0.0130: real time    0.0134
     EDDAV:  cpu time  626.9627: real time  628.1168
       DOS:  cpu time    0.0040: real time    0.0038
    CHARGE:  cpu time   36.7674: real time   36.8235
    MIXING:  cpu time    0.0090: real time    0.0082
    --------------------------------------------
      LOOP:  cpu time  664.3270: real time  665.5420

 eigenvalue-minimisations  : 24024
 total energy-change (2. order) :-0.2942812E+03  (-0.3025926E+02)
 number of electron     134.9999914 magnetization      -0.3011465
 augmentation part        7.5766495 magnetization      -0.2401885

 DIPCOR: dipole corrections for dipol
 direction  3 min pos    17,
 dipolmoment           0.000000      0.000000     -0.482777 electrons x Angstroem
 Tr[quadrupol]     -2317.962891

 energy correction for charged system         0.000000 eV
 dipol+quadrupol energy correction           -0.012488 eV
 added-field ion interaction         -9.168297 eV  (added to PSCEN)


 Broyden mixing:
  rms(total) = 0.55740E-01    rms(broyden)= 0.55735E-01
  rms(prec ) = 0.86517E-01
  weight for this iteration     100.00

 Free energy of the ion-electron system (eV)
  ---------------------------------------------------
  alpha Z        PSCENC =        46.40963596
  Ewald energy   TEWEN  =     21840.33001928
  -Hartree energ DENC   =    -26391.18801231
  -exchange      EXHF   =         0.00000000
  -V(xc)+E(xc)   XCENC  =       485.48718494
  PAW double counting   =      2689.46459078    -2819.40133542
  entropy T*S    EENTRO =        -0.00597946
  eigenvalues    EBANDS =     -1620.16861672
  atomic energy  EATOM  =      5474.79130437
  Solvation  Ediel_sol  =         0.00000000
  ---------------------------------------------------
  free energy    TOTEN  =      -294.28120857 eV

  energy without entropy =     -294.27522911  energy(sigma->0) =     -294.27821884


--------------------------------------------------------------------------------------------------------




--------------------------------------- Iteration      1(   2)  ---------------------------------------


    POTLOK:  cpu time    0.5509: real time    0.5519
    SETDIJ:  cpu time    0.0140: real time    0.0139
     EDDAV:  cpu time  606.8817: real time  607.8999
       DOS:  cpu time    0.0050: real time    0.0047
    CHARGE:  cpu time   36.8514: real time   36.9148
    MIXING:  cpu time    0.0090: real time    0.0091
    --------------------------------------------
      LOOP:  cpu time  644.3130: real time  645.3944

 eigenvalue-minimisations  : 23088
 total energy-change (2. order) :-0.1378485E+01  (-0.1498453E+01)
 number of electron     134.9999914 magnetization      -0.2836302
 augmentation part        7.5622486 magnetization      -0.0947261

 DIPCOR: dipole corrections for dipol
 direction  3 min pos    15,
 dipolmoment           0.000000      0.000000     -0.590508 electrons x Angstroem
 Tr[quadrupol]     -2318.235771

 energy correction for charged system         0.000000 eV
 dipol+quadrupol energy correction           -0.018683 eV
 added-field ion interaction         -9.688728 eV  (added to PSCEN)


 Broyden mixing:
  rms(total) = 0.22319E-01    rms(broyden)= 0.22310E-01
  rms(prec ) = 0.33249E-01
  weight for this iteration     100.00

 eigenvalues of (default mixing * dielectric matrix)
  average eigenvalue GAMMA=   0.7280
  0.7280

 Free energy of the ion-electron system (eV)
  ---------------------------------------------------
  alpha Z        PSCENC =        45.88301000
  Ewald energy   TEWEN  =     21840.33001928
  -Hartree energ DENC   =    -26398.71594706
  -exchange      EXHF   =         0.00000000
  -V(xc)+E(xc)   XCENC  =       485.66345812
  PAW double counting   =      2688.30874924    -2818.30268535
  entropy T*S    EENTRO =        -0.01282516
  eigenvalues    EBANDS =     -1613.60477741
  atomic energy  EATOM  =      5474.79130437
  Solvation  Ediel_sol  =         0.00000000
  ---------------------------------------------------
  free energy    TOTEN  =      -295.65969396 eV

  energy without entropy =     -295.64686880  energy(sigma->0) =     -295.65328138


--------------------------------------------------------------------------------------------------------




--------------------------------------- Iteration      1(   3)  ---------------------------------------


    POTLOK:  cpu time    0.5469: real time    0.5471
    SETDIJ:  cpu time    0.0140: real time    0.0144
     EDDAV:  cpu time  636.3543: real time  637.4368
       DOS:  cpu time    0.0040: real time    0.0038
    CHARGE:  cpu time   36.9274: real time   36.9833
    MIXING:  cpu time    0.0090: real time    0.0123
    --------------------------------------------
      LOOP:  cpu time  673.8546: real time  674.9978

 eigenvalue-minimisations  : 24720
 total energy-change (2. order) :-0.7373327E-01  (-0.2904603E-01)
 number of electron     134.9999915 magnetization      -0.2958632
 augmentation part        7.5561367 magnetization       0.0749858

 DIPCOR: dipole corrections for dipol
 direction  3 min pos    14,
 dipolmoment           0.000000      0.000000     -0.627864 electrons x Angstroem
 Tr[quadrupol]     -2318.423897

 energy correction for charged system         0.000000 eV
 dipol+quadrupol energy correction           -0.021122 eV
 added-field ion interaction         -9.490652 eV  (added to PSCEN)


 Broyden mixing:
  rms(total) = 0.28298E-01    rms(broyden)= 0.28285E-01
  rms(prec ) = 0.38907E-01
  weight for this iteration     100.00

 eigenvalues of (default mixing * dielectric matrix)
  average eigenvalue GAMMA=   0.6977
  0.6977  0.6977

 Free energy of the ion-electron system (eV)
  ---------------------------------------------------
  alpha Z        PSCENC =        46.07864669
  Ewald energy   TEWEN  =     21840.33001928
  -Hartree energ DENC   =    -26402.72219149
  -exchange      EXHF   =         0.00000000
  -V(xc)+E(xc)   XCENC  =       485.68160510
  PAW double counting   =      2689.09583426    -2818.97699141
  entropy T*S    EENTRO =        -0.01677112
  eigenvalues    EBANDS =     -1609.99488290
  atomic energy  EATOM  =      5474.79130437
  Solvation  Ediel_sol  =         0.00000000
  ---------------------------------------------------
  free energy    TOTEN  =      -295.73342723 eV

  energy without entropy =     -295.71665611  energy(sigma->0) =     -295.72504167


--------------------------------------------------------------------------------------------------------




--------------------------------------- Iteration      1(   4)  ---------------------------------------


    POTLOK:  cpu time    0.5449: real time    0.5495
    SETDIJ:  cpu time    0.0140: real time    0.0138
     EDDAV:  cpu time  610.8121: real time  611.8092
       DOS:  cpu time    0.0050: real time    0.0047
    CHARGE:  cpu time   36.8304: real time   36.8900
    MIXING:  cpu time    0.0100: real time    0.0101
    --------------------------------------------
      LOOP:  cpu time  648.2165: real time  649.2773

 eigenvalue-minimisations  : 23472
 total energy-change (2. order) :-0.3745195E-01  (-0.1639416E-02)
 number of electron     134.9999915 magnetization      -0.2971592
 augmentation part        7.5608052 magnetization      -0.0079942

 DIPCOR: dipole corrections for dipol
 direction  3 min pos    14,
 dipolmoment           0.000000      0.000000     -0.591008 electrons x Angstroem
 Tr[quadrupol]     -2318.384666

 energy correction for charged system         0.000000 eV
 dipol+quadrupol energy correction           -0.018715 eV
 added-field ion interaction         -8.933559 eV  (added to PSCEN)


 Broyden mixing:
  rms(total) = 0.71580E-02    rms(broyden)= 0.71532E-02
  rms(prec ) = 0.79990E-02
  weight for this iteration     100.00

 eigenvalues of (default mixing * dielectric matrix)
  average eigenvalue GAMMA=   0.8068
  0.9008  0.9008  0.6188

 Free energy of the ion-electron system (eV)
  ---------------------------------------------------
  alpha Z        PSCENC =        46.63814689
  Ewald energy   TEWEN  =     21840.33001928
  -Hartree energ DENC   =    -26399.69758922
  -exchange      EXHF   =         0.00000000
  -V(xc)+E(xc)   XCENC  =       485.58863198
  PAW double counting   =      2688.62065431    -2818.56431619
  entropy T*S    EENTRO =        -0.01612915
  eigenvalues    EBANDS =     -1613.46160146
  atomic energy  EATOM  =      5474.79130437
  Solvation  Ediel_sol  =         0.00000000
  ---------------------------------------------------
  free energy    TOTEN  =      -295.77087919 eV

  energy without entropy =     -295.75475004  energy(sigma->0) =     -295.76281461


--------------------------------------------------------------------------------------------------------




--------------------------------------- Iteration      1(   5)  ---------------------------------------


    POTLOK:  cpu time    0.5519: real time    0.5527
    SETDIJ:  cpu time    0.0140: real time    0.0139
     EDDAV:  cpu time  645.5289: real time  646.5837
       DOS:  cpu time    0.0040: real time    0.0043
    CHARGE:  cpu time   37.0334: real time   37.0884
    MIXING:  cpu time    0.0110: real time    0.0102
    --------------------------------------------
      LOOP:  cpu time  683.1431: real time  684.2532

 eigenvalue-minimisations  : 25200
 total energy-change (2. order) :-0.9754501E-02  (-0.1471150E-03)
 number of electron     134.9999915 magnetization      -0.2954050
 augmentation part        7.5617223 magnetization      -0.0173820

 DIPCOR: dipole corrections for dipol
 direction  3 min pos    14,
 dipolmoment           0.000000      0.000000     -0.582042 electrons x Angstroem
 Tr[quadrupol]     -2318.389970

 energy correction for charged system         0.000000 eV
 dipol+quadrupol energy correction           -0.018151 eV
 added-field ion interaction         -8.798028 eV  (added to PSCEN)


 Broyden mixing:
  rms(total) = 0.38976E-02    rms(broyden)= 0.38958E-02
  rms(prec ) = 0.51329E-02
  weight for this iteration     100.00

 eigenvalues of (default mixing * dielectric matrix)
  average eigenvalue GAMMA=   0.8594
  1.0410  1.0410  0.6778  0.6778

 Free energy of the ion-electron system (eV)
  ---------------------------------------------------
  alpha Z        PSCENC =        46.77424115
  Ewald energy   TEWEN  =     21840.33001928
  -Hartree energ DENC   =    -26399.33973630
  -exchange      EXHF   =         0.00000000
  -V(xc)+E(xc)   XCENC  =       485.57000169
  PAW double counting   =      2688.76863907    -2818.70612128
  entropy T*S    EENTRO =        -0.01589855
  eigenvalues    EBANDS =     -1613.95308312
  atomic energy  EATOM  =      5474.79130437
  Solvation  Ediel_sol  =         0.00000000
  ---------------------------------------------------
  free energy    TOTEN  =      -295.78063369 eV

  energy without entropy =     -295.76473514  energy(sigma->0) =     -295.77268442


--------------------------------------------------------------------------------------------------------




--------------------------------------- Iteration      1(   6)  ---------------------------------------


    POTLOK:  cpu time    0.5449: real time    0.5459
    SETDIJ:  cpu time    0.0120: real time    0.0137
     EDDAV:  cpu time  589.6194: real time  590.5957
       DOS:  cpu time    0.0040: real time    0.0041
    CHARGE:  cpu time   36.8754: real time   36.9418
    MIXING:  cpu time    0.0130: real time    0.0126
    --------------------------------------------
      LOOP:  cpu time  627.0687: real time  628.1138

 eigenvalue-minimisations  : 22464
 total energy-change (2. order) :-0.1374104E-02  (-0.4836721E-04)
 number of electron     134.9999915 magnetization      -0.2923356
 augmentation part        7.5617317 magnetization      -0.0119165

 DIPCOR: dipole corrections for dipol
 direction  3 min pos    14,
 dipolmoment           0.000000      0.000000     -0.581562 electrons x Angstroem
 Tr[quadrupol]     -2318.403406

 energy correction for charged system         0.000000 eV
 dipol+quadrupol energy correction           -0.018121 eV
 added-field ion interaction         -8.790773 eV  (added to PSCEN)


 Broyden mixing:
  rms(total) = 0.23612E-02    rms(broyden)= 0.23612E-02
  rms(prec ) = 0.34451E-02
  weight for this iteration     100.00

 eigenvalues of (default mixing * dielectric matrix)
  average eigenvalue GAMMA=   1.0460
  1.4121  1.4121  0.8609  0.8609  0.6839

 Free energy of the ion-electron system (eV)
  ---------------------------------------------------
  alpha Z        PSCENC =        46.78152668
  Ewald energy   TEWEN  =     21840.33001928
  -Hartree energ DENC   =    -26399.67231549
  -exchange      EXHF   =         0.00000000
  -V(xc)+E(xc)   XCENC  =       485.57147298
  PAW double counting   =      2688.99851939    -2818.92521437
  entropy T*S    EENTRO =        -0.01594078
  eigenvalues    EBANDS =     -1613.64137985
  atomic energy  EATOM  =      5474.79130437
  Solvation  Ediel_sol  =         0.00000000
  ---------------------------------------------------
  free energy    TOTEN  =      -295.78200779 eV

  energy without entropy =     -295.76606702  energy(sigma->0) =     -295.77403740


--------------------------------------------------------------------------------------------------------




--------------------------------------- Iteration      1(   7)  ---------------------------------------


    POTLOK:  cpu time    0.5459: real time    0.5475
    SETDIJ:  cpu time    0.0140: real time    0.0136
     EDDAV:  cpu time  575.0956: real time  575.8313
       DOS:  cpu time    0.0040: real time    0.0042
    CHARGE:  cpu time   36.8354: real time   36.8580
    MIXING:  cpu time    0.0120: real time    0.0115
    --------------------------------------------
      LOOP:  cpu time  612.5069: real time  613.2661

 eigenvalue-minimisations  : 21720
 total energy-change (2. order) : 0.1145346E-02  (-0.1195191E-03)
 number of electron     134.9999915 magnetization      -0.2902577
 augmentation part        7.5615172 magnetization      -0.0049334

 DIPCOR: dipole corrections for dipol
 direction  3 min pos    15,
 dipolmoment           0.000000      0.000000     -0.582842 electrons x Angstroem
 Tr[quadrupol]     -2318.320667

 energy correction for charged system         0.000000 eV
 dipol+quadrupol energy correction           -0.018201 eV
 added-field ion interaction         -9.562950 eV  (added to PSCEN)


 Broyden mixing:
  rms(total) = 0.75759E-03    rms(broyden)= 0.75698E-03
  rms(prec ) = 0.14003E-02
  weight for this iteration     100.00

 eigenvalues of (default mixing * dielectric matrix)
  average eigenvalue GAMMA=   1.0905
  1.6311  1.6311  0.9181  0.9181  0.7225  0.7225

 Free energy of the ion-electron system (eV)
  ---------------------------------------------------
  alpha Z        PSCENC =        46.00926995
  Ewald energy   TEWEN  =     21840.33001928
  -Hartree energ DENC   =    -26400.23506378
  -exchange      EXHF   =         0.00000000
  -V(xc)+E(xc)   XCENC  =       485.57646279
  PAW double counting   =      2689.23182115    -2819.15003313
  entropy T*S    EENTRO =        -0.01604301
  eigenvalues    EBANDS =     -1612.31860006
  atomic energy  EATOM  =      5474.79130437
  Solvation  Ediel_sol  =         0.00000000
  ---------------------------------------------------
  free energy    TOTEN  =      -295.78086245 eV

  energy without entropy =     -295.76481944  energy(sigma->0) =     -295.77284094


--------------------------------------------------------------------------------------------------------




--------------------------------------- Iteration      1(   8)  ---------------------------------------


    POTLOK:  cpu time    0.5419: real time    0.5439
    SETDIJ:  cpu time    0.0130: real time    0.0138
     EDDAV:  cpu time  627.2436: real time  627.5859
       DOS:  cpu time    0.0050: real time    0.0041
    CHARGE:  cpu time   37.0014: real time   37.0345
    MIXING:  cpu time    0.0120: real time    0.0117
    --------------------------------------------
      LOOP:  cpu time  664.8169: real time  665.1938

 eigenvalue-minimisations  : 24240
 total energy-change (2. order) : 0.1457755E-04  (-0.9433375E-05)
 number of electron     134.9999915 magnetization      -0.2886470
 augmentation part        7.5612567 magnetization      -0.0009089

 DIPCOR: dipole corrections for dipol
 direction  3 min pos    16,
 dipolmoment           0.000000      0.000000     -0.584172 electrons x Angstroem
 Tr[quadrupol]     -2318.230463

 energy correction for charged system         0.000000 eV
 dipol+quadrupol energy correction           -0.018284 eV
 added-field ion interaction        -10.339309 eV  (added to PSCEN)


 Broyden mixing:
  rms(total) = 0.68150E-03    rms(broyden)= 0.68115E-03
  rms(prec ) = 0.10182E-02
  weight for this iteration     100.00

 eigenvalues of (default mixing * dielectric matrix)
  average eigenvalue GAMMA=   1.1416
  1.9146  1.9146  0.9528  0.9528  0.8032  0.8032  0.6504

 Free energy of the ion-electron system (eV)
  ---------------------------------------------------
  alpha Z        PSCENC =        45.23282773
  Ewald energy   TEWEN  =     21840.33001928
  -Hartree energ DENC   =    -26400.59330692
  -exchange      EXHF   =         0.00000000
  -V(xc)+E(xc)   XCENC  =       485.57838029
  PAW double counting   =      2689.29028312    -2819.20843458
  entropy T*S    EENTRO =        -0.01609258
  eigenvalues    EBANDS =     -1611.18582857
  atomic energy  EATOM  =      5474.79130437
  Solvation  Ediel_sol  =         0.00000000
  ---------------------------------------------------
  free energy    TOTEN  =      -295.78084787 eV

  energy without entropy =     -295.76475529  energy(sigma->0) =     -295.77280158


--------------------------------------------------------------------------------------------------------




--------------------------------------- Iteration      1(   9)  ---------------------------------------


    POTLOK:  cpu time    0.5429: real time    0.5449
    SETDIJ:  cpu time    0.0130: real time    0.0138
     EDDAV:  cpu time  583.5463: real time  583.8822
       DOS:  cpu time    0.0040: real time    0.0038
    CHARGE:  cpu time   36.8964: real time   36.9114
    MIXING:  cpu time    0.0130: real time    0.0131
    --------------------------------------------
      LOOP:  cpu time  621.0166: real time  621.3692

 eigenvalue-minimisations  : 22104
 total energy-change (2. order) :-0.1078559E-02  (-0.1985380E-04)
 number of electron     134.9999915 magnetization      -0.2875053
 augmentation part        7.5611444 magnetization       0.0004000

 DIPCOR: dipole corrections for dipol
 direction  3 min pos    16,
 dipolmoment           0.000000      0.000000     -0.584583 electrons x Angstroem
 Tr[quadrupol]     -2318.241985

 energy correction for charged system         0.000000 eV
 dipol+quadrupol energy correction           -0.018310 eV
 added-field ion interaction        -10.346590 eV  (added to PSCEN)


 Broyden mixing:
  rms(total) = 0.46670E-03    rms(broyden)= 0.46665E-03
  rms(prec ) = 0.70168E-03
  weight for this iteration     100.00

 eigenvalues of (default mixing * dielectric matrix)
  average eigenvalue GAMMA=   1.2695
  2.4845  2.4845  1.0014  1.0014  0.8992  0.8992  0.7209  0.6650

 Free energy of the ion-electron system (eV)
  ---------------------------------------------------
  alpha Z        PSCENC =        45.22552053
  Ewald energy   TEWEN  =     21840.33001928
  -Hartree energ DENC   =    -26400.84365589
  -exchange      EXHF   =         0.00000000
  -V(xc)+E(xc)   XCENC  =       485.57739451
  PAW double counting   =      2689.26755255    -2819.18623685
  entropy T*S    EENTRO =        -0.01609814
  eigenvalues    EBANDS =     -1610.92772680
  atomic energy  EATOM  =      5474.79130437
  Solvation  Ediel_sol  =         0.00000000
  ---------------------------------------------------
  free energy    TOTEN  =      -295.78192643 eV

  energy without entropy =     -295.76582829  energy(sigma->0) =     -295.77387736


--------------------------------------------------------------------------------------------------------




--------------------------------------- Iteration      1(  10)  ---------------------------------------


    POTLOK:  cpu time    0.5509: real time    0.5565
    SETDIJ:  cpu time    0.0140: real time    0.0142
     EDDAV:  cpu time  575.5685: real time  575.8789
       DOS:  cpu time    0.0030: real time    0.0331
    CHARGE:  cpu time   36.9624: real time   36.9831
    MIXING:  cpu time    0.0130: real time    0.0132
    --------------------------------------------
      LOOP:  cpu time  613.1118: real time  613.4789

 eigenvalue-minimisations  : 21720
 total energy-change (2. order) :-0.5347307E-03  (-0.2367272E-04)
 number of electron     134.9999915 magnetization      -0.2871438
 augmentation part        7.5610799 magnetization       0.0012322

 DIPCOR: dipole corrections for dipol
 direction  3 min pos    17,
 dipolmoment           0.000000      0.000000     -0.585026 electrons x Angstroem
 Tr[quadrupol]     -2318.147068

 energy correction for charged system         0.000000 eV
 dipol+quadrupol energy correction           -0.018338 eV
 added-field ion interaction        -11.110089 eV  (added to PSCEN)


 Broyden mixing:
  rms(total) = 0.32923E-03    rms(broyden)= 0.32920E-03
  rms(prec ) = 0.52624E-03
  weight for this iteration     100.00

 eigenvalues of (default mixing * dielectric matrix)
  average eigenvalue GAMMA=   1.3886
  3.1137  3.1137  1.1632  1.1632  0.9187  0.9187  0.7366  0.7366  0.6333

 Free energy of the ion-electron system (eV)
  ---------------------------------------------------
  alpha Z        PSCENC =        44.46199387
  Ewald energy   TEWEN  =     21840.33001928
  -Hartree energ DENC   =    -26401.02342974
  -exchange      EXHF   =         0.00000000
  -V(xc)+E(xc)   XCENC  =       485.57648835
  PAW double counting   =      2689.22998794    -2819.14710987
  entropy T*S    EENTRO =        -0.01610629
  eigenvalues    EBANDS =     -1609.98560907
  atomic energy  EATOM  =      5474.79130437
  Solvation  Ediel_sol  =         0.00000000
  ---------------------------------------------------
  free energy    TOTEN  =      -295.78246116 eV

  energy without entropy =     -295.76635487  energy(sigma->0) =     -295.77440801


--------------------------------------------------------------------------------------------------------




--------------------------------------- Iteration      1(  11)  ---------------------------------------


    POTLOK:  cpu time    0.5459: real time    0.5684
    SETDIJ:  cpu time    0.0140: real time    0.0138
     EDDAV:  cpu time  573.5038: real time  573.8140
       DOS:  cpu time    0.0040: real time    0.0037
    CHARGE:  cpu time   37.0064: real time   37.0290
    MIXING:  cpu time    0.0140: real time    0.0140
    --------------------------------------------
      LOOP:  cpu time  611.0871: real time  611.4429

 eigenvalue-minimisations  : 21624
 total energy-change (2. order) :-0.3729295E-03  (-0.1525295E-04)
 number of electron     134.9999915 magnetization      -0.2869726
 augmentation part        7.5611693 magnetization       0.0002815

 DIPCOR: dipole corrections for dipol
 direction  3 min pos    19,
 dipolmoment           0.000000      0.000000     -0.584889 electrons x Angstroem
 Tr[quadrupol]     -2317.943996

 energy correction for charged system         0.000000 eV
 dipol+quadrupol energy correction           -0.018329 eV
 added-field ion interaction        -12.618425 eV  (added to PSCEN)


 Broyden mixing:
  rms(total) = 0.19069E-03    rms(broyden)= 0.19060E-03
  rms(prec ) = 0.26924E-03
  weight for this iteration     100.00

 eigenvalues of (default mixing * dielectric matrix)
  average eigenvalue GAMMA=   1.4396
  4.1103  2.8981  1.3103  1.3103  0.9356  0.9356  0.8047  0.8047  0.6511  0.6352

 Free energy of the ion-electron system (eV)
  ---------------------------------------------------
  alpha Z        PSCENC =        42.95366626
  Ewald energy   TEWEN  =     21840.33001928
  -Hartree energ DENC   =    -26401.08603872
  -exchange      EXHF   =         0.00000000
  -V(xc)+E(xc)   XCENC  =       485.57530246
  PAW double counting   =      2689.19571003    -2819.11125758
  entropy T*S    EENTRO =        -0.01608601
  eigenvalues    EBANDS =     -1608.41545418
  atomic energy  EATOM  =      5474.79130437
  Solvation  Ediel_sol  =         0.00000000
  ---------------------------------------------------
  free energy    TOTEN  =      -295.78283409 eV

  energy without entropy =     -295.76674808  energy(sigma->0) =     -295.77479108


--------------------------------------------------------------------------------------------------------




--------------------------------------- Iteration      1(  12)  ---------------------------------------


    POTLOK:  cpu time    0.5469: real time    0.5467
    SETDIJ:  cpu time    0.0140: real time    0.0139
     EDDAV:  cpu time  570.7152: real time  571.0221
       DOS:  cpu time    0.0040: real time    0.0036
    CHARGE:  cpu time   37.1054: real time   37.1262
    MIXING:  cpu time    0.0150: real time    0.0156
    --------------------------------------------
      LOOP:  cpu time  608.4005: real time  608.7283

 eigenvalue-minimisations  : 21432
 total energy-change (2. order) :-0.8960286E-04  (-0.5937823E-06)
 number of electron     134.9999915 magnetization      -0.2869840
 augmentation part        7.5611528 magnetization       0.0008286

 DIPCOR: dipole corrections for dipol
 direction  3 min pos    20,
 dipolmoment           0.000000      0.000000     -0.584992 electrons x Angstroem
 Tr[quadrupol]     -2317.842014

 energy correction for charged system         0.000000 eV
 dipol+quadrupol energy correction           -0.018336 eV
 added-field ion interaction        -13.376260 eV  (added to PSCEN)


 Broyden mixing:
  rms(total) = 0.12724E-03    rms(broyden)= 0.12723E-03
  rms(prec ) = 0.20190E-03
  weight for this iteration     100.00

 eigenvalues of (default mixing * dielectric matrix)
  average eigenvalue GAMMA=   1.4861
  4.3097  3.3214  1.4836  1.4836  0.9648  0.9648  0.8918  0.8918  0.7061  0.7061
  0.6233

 Free energy of the ion-electron system (eV)
  ---------------------------------------------------
  alpha Z        PSCENC =        42.19582462
  Ewald energy   TEWEN  =     21840.33001928
  -Hartree energ DENC   =    -26401.13500257
  -exchange      EXHF   =         0.00000000
  -V(xc)+E(xc)   XCENC  =       485.57568351
  PAW double counting   =      2689.20541202    -2819.12059527
  entropy T*S    EENTRO =        -0.01609603
  eigenvalues    EBANDS =     -1607.60947362
  atomic energy  EATOM  =      5474.79130437
  Solvation  Ediel_sol  =         0.00000000
  ---------------------------------------------------
  free energy    TOTEN  =      -295.78292369 eV

  energy without entropy =     -295.76682766  energy(sigma->0) =     -295.77487567


--------------------------------------------------------------------------------------------------------




--------------------------------------- Iteration      1(  13)  ---------------------------------------


    POTLOK:  cpu time    0.5449: real time    0.5449
    SETDIJ:  cpu time    0.0140: real time    0.0141
     EDDAV:  cpu time  531.4122: real time  531.7045
       DOS:  cpu time    0.0040: real time    0.0037
    CHARGE:  cpu time   37.1264: real time   37.1485
    MIXING:  cpu time    0.0160: real time    0.0165
    --------------------------------------------
      LOOP:  cpu time  569.1175: real time  569.4322

 eigenvalue-minimisations  : 19488
 total energy-change (2. order) :-0.2733487E-03  (-0.3321826E-05)
 number of electron     134.9999915 magnetization      -0.2870129
 augmentation part        7.5611437 magnetization       0.0006619

 DIPCOR: dipole corrections for dipol
 direction  3 min pos    21,
 dipolmoment           0.000000      0.000000     -0.584787 electrons x Angstroem
 Tr[quadrupol]     -2317.740546

 energy correction for charged system         0.000000 eV
 dipol+quadrupol energy correction           -0.018323 eV
 added-field ion interaction        -14.126915 eV  (added to PSCEN)


 Broyden mixing:
  rms(total) = 0.78268E-04    rms(broyden)= 0.78262E-04
  rms(prec ) = 0.11073E-03
  weight for this iteration     100.00

 eigenvalues of (default mixing * dielectric matrix)
  average eigenvalue GAMMA=   1.5312
  4.8357  3.6429  1.6615  1.6615  0.9682  0.9682  0.9669  0.9669  0.7177  0.7177
  0.6334  0.6334

 Free energy of the ion-electron system (eV)
  ---------------------------------------------------
  alpha Z        PSCENC =        41.44518236
  Ewald energy   TEWEN  =     21840.33001928
  -Hartree energ DENC   =    -26401.16690120
  -exchange      EXHF   =         0.00000000
  -V(xc)+E(xc)   XCENC  =       485.57579030
  PAW double counting   =      2689.20736449    -2819.12355535
  entropy T*S    EENTRO =        -0.01609373
  eigenvalues    EBANDS =     -1606.82630756
  atomic energy  EATOM  =      5474.79130437
  Solvation  Ediel_sol  =         0.00000000
  ---------------------------------------------------
  free energy    TOTEN  =      -295.78319704 eV

  energy without entropy =     -295.76710331  energy(sigma->0) =     -295.77515017


--------------------------------------------------------------------------------------------------------




--------------------------------------- Iteration      1(  14)  ---------------------------------------


    POTLOK:  cpu time    0.5439: real time    0.5437
    SETDIJ:  cpu time    0.0150: real time    0.0152
     EDDAV:  cpu time  556.4054: real time  556.7191
       DOS:  cpu time    0.0060: real time    0.0060
    CHARGE:  cpu time   37.2753: real time   37.2959
    MIXING:  cpu time    0.0200: real time    0.0206
    --------------------------------------------
      LOOP:  cpu time  594.2667: real time  594.6004

 eigenvalue-minimisations  : 20736
 total energy-change (2. order) :-0.7464212E-04  (-0.6018088E-06)
 number of electron     134.9999915 magnetization      -0.2870394
 augmentation part        7.5611442 magnetization       0.0006783

 DIPCOR: dipole corrections for dipol
 direction  3 min pos    23,
 dipolmoment           0.000000      0.000000     -0.584793 electrons x Angstroem
 Tr[quadrupol]     -2317.533266

 energy correction for charged system         0.000000 eV
 dipol+quadrupol energy correction           -0.018323 eV
 added-field ion interaction        -15.637749 eV  (added to PSCEN)


 Broyden mixing:
  rms(total) = 0.39037E-04    rms(broyden)= 0.39030E-04
  rms(prec ) = 0.62387E-04
  weight for this iteration     100.00

 eigenvalues of (default mixing * dielectric matrix)
  average eigenvalue GAMMA=   1.5867
  5.2337  4.1786  1.7615  1.7615  1.1056  1.1056  0.9468  0.9468  0.8102  0.8102
  0.6738  0.6738  0.6191

 Free energy of the ion-electron system (eV)
  ---------------------------------------------------
  alpha Z        PSCENC =        39.93434847
  Ewald energy   TEWEN  =     21840.33001928
  -Hartree energ DENC   =    -26401.18330103
  -exchange      EXHF   =         0.00000000
  -V(xc)+E(xc)   XCENC  =       485.57593982
  PAW double counting   =      2689.21137298    -2819.12749169
  entropy T*S    EENTRO =        -0.01609492
  eigenvalues    EBANDS =     -1605.29936897
  atomic energy  EATOM  =      5474.79130437
  Solvation  Ediel_sol  =         0.00000000
  ---------------------------------------------------
  free energy    TOTEN  =      -295.78327168 eV

  energy without entropy =     -295.76717676  energy(sigma->0) =     -295.77522422


--------------------------------------------------------------------------------------------------------




--------------------------------------- Iteration      1(  15)  ---------------------------------------


    POTLOK:  cpu time    0.5419: real time    0.5423
    SETDIJ:  cpu time    0.0140: real time    0.0142
     EDDAV:  cpu time  539.6070: real time  539.9036
       DOS:  cpu time    0.0050: real time    0.0044
    CHARGE:  cpu time   36.8934: real time   36.9192
    MIXING:  cpu time    0.0180: real time    0.0176
    --------------------------------------------
      LOOP:  cpu time  577.0783: real time  577.4013

 eigenvalue-minimisations  : 19944
 total energy-change (2. order) :-0.6511426E-04  (-0.5593035E-06)
 number of electron     134.9999915 magnetization      -0.2870419
 augmentation part        7.5611444 magnetization       0.0006658

 DIPCOR: dipole corrections for dipol
 direction  3 min pos    24,
 dipolmoment           0.000000      0.000000     -0.584805 electrons x Angstroem
 Tr[quadrupol]     -2317.429933

 energy correction for charged system         0.000000 eV
 dipol+quadrupol energy correction           -0.018324 eV
 added-field ion interaction        -16.393447 eV  (added to PSCEN)


 Broyden mixing:
  rms(total) = 0.24450E-04    rms(broyden)= 0.24448E-04
  rms(prec ) = 0.39921E-04
  weight for this iteration     100.00

 eigenvalues of (default mixing * dielectric matrix)
  average eigenvalue GAMMA=   1.6473
  5.3712  4.8744  1.9590  1.9590  1.2120  1.2120  0.9508  0.9508  0.9156  0.9156
  0.7681  0.6779  0.6779  0.6185

 Free energy of the ion-electron system (eV)
  ---------------------------------------------------
  alpha Z        PSCENC =        39.17864926
  Ewald energy   TEWEN  =     21840.33001928
  -Hartree energ DENC   =    -26401.19191086
  -exchange      EXHF   =         0.00000000
  -V(xc)+E(xc)   XCENC  =       485.57592083
  PAW double counting   =      2689.21086193    -2819.12684819
  entropy T*S    EENTRO =        -0.01609501
  eigenvalues    EBANDS =     -1604.53523841
  atomic energy  EATOM  =      5474.79130437
  Solvation  Ediel_sol  =         0.00000000
  ---------------------------------------------------
  free energy    TOTEN  =      -295.78333680 eV

  energy without entropy =     -295.76724178  energy(sigma->0) =     -295.77528929


--------------------------------------------------------------------------------------------------------




--------------------------------------- Iteration      1(  16)  ---------------------------------------


    POTLOK:  cpu time    0.5469: real time    0.5488
    SETDIJ:  cpu time    0.0140: real time    0.0138
     EDDAV:  cpu time  546.1070: real time  546.4173
       DOS:  cpu time    0.0030: real time    0.0034
    CHARGE:  cpu time   37.0414: real time   37.0545
    MIXING:  cpu time    0.0180: real time    0.0186
    --------------------------------------------
      LOOP:  cpu time  583.7303: real time  584.0563

 eigenvalue-minimisations  : 20280
 total energy-change (2. order) :-0.4037911E-04  (-0.3747809E-06)
 number of electron     134.9999915 magnetization      -0.2870374
 augmentation part        7.5611454 magnetization       0.0006573

 DIPCOR: dipole corrections for dipol
 direction  3 min pos    18,
 dipolmoment           0.000000      0.000000     -0.584872 electrons x Angstroem
 Tr[quadrupol]     -2318.058015

 energy correction for charged system         0.000000 eV
 dipol+quadrupol energy correction           -0.018328 eV
 added-field ion interaction        -11.862610 eV  (added to PSCEN)


 Broyden mixing:
  rms(total) = 0.13700E-04    rms(broyden)= 0.13699E-04
  rms(prec ) = 0.23558E-04
  weight for this iteration     100.00

 eigenvalues of (default mixing * dielectric matrix)
  average eigenvalue GAMMA=   1.7082
  6.1178  5.1471  2.5300  1.9628  0.9522  0.9522  1.1520  1.1520  1.0650  1.0650
  0.8058  0.7802  0.6203  0.6681  0.6531

 Free energy of the ion-electron system (eV)
  ---------------------------------------------------
  alpha Z        PSCENC =        43.70948283
  Ewald energy   TEWEN  =     21840.33001928
  -Hartree energ DENC   =    -26401.20225201
  -exchange      EXHF   =         0.00000000
  -V(xc)+E(xc)   XCENC  =       485.57585110
  PAW double counting   =      2689.20823042    -2819.12405725
  entropy T*S    EENTRO =        -0.01609523
  eigenvalues    EBANDS =     -1609.05586068
  atomic energy  EATOM  =      5474.79130437
  Solvation  Ediel_sol  =         0.00000000
  ---------------------------------------------------
  free energy    TOTEN  =      -295.78337718 eV

  energy without entropy =     -295.76728195  energy(sigma->0) =     -295.77532956


--------------------------------------------------------------------------------------------------------




--------------------------------------- Iteration      1(  17)  ---------------------------------------


    POTLOK:  cpu time    0.5509: real time    0.5504
    SETDIJ:  cpu time    0.0140: real time    0.0138
     EDDAV:  cpu time  531.5822: real time  531.8773
       DOS:  cpu time    0.0040: real time    0.0040
    CHARGE:  cpu time   37.0204: real time   37.0434
    MIXING:  cpu time    0.0200: real time    0.0198
    --------------------------------------------
      LOOP:  cpu time  569.1915: real time  569.5087

 eigenvalue-minimisations  : 19416
 total energy-change (2. order) :-0.8192407E-05  ( 0.1272347E-08)
 number of electron     134.9999915 magnetization      -0.2870649
 augmentation part        7.5611384 magnetization       0.0007626

 DIPCOR: dipole corrections for dipol
 direction  3 min pos    16,
 dipolmoment           0.000000      0.000000     -0.585032 electrons x Angstroem
 Tr[quadrupol]     -2318.267721

 energy correction for charged system         0.000000 eV
 dipol+quadrupol energy correction           -0.018338 eV
 added-field ion interaction        -10.354530 eV  (added to PSCEN)


 Broyden mixing:
  rms(total) = 0.22929E-04    rms(broyden)= 0.22921E-04
  rms(prec ) = 0.38525E-04
  weight for this iteration     100.00

 eigenvalues of (default mixing * dielectric matrix)
  average eigenvalue GAMMA=   1.7017
  6.3582  5.2441  2.3975  2.3975  1.3178  1.3178  0.9539  0.9539  1.0370  1.0370
  0.8095  0.8095  0.6728  0.6371  0.6420  0.6420

 Free energy of the ion-electron system (eV)
  ---------------------------------------------------
  alpha Z        PSCENC =        45.21755221
  Ewald energy   TEWEN  =     21840.33001928
  -Hartree energ DENC   =    -26401.20742054
  -exchange      EXHF   =         0.00000000
  -V(xc)+E(xc)   XCENC  =       485.57583404
  PAW double counting   =      2689.20753599    -2819.12330592
  entropy T*S    EENTRO =        -0.01609779
  eigenvalues    EBANDS =     -1610.55880699
  atomic energy  EATOM  =      5474.79130437
  Solvation  Ediel_sol  =         0.00000000
  ---------------------------------------------------
  free energy    TOTEN  =      -295.78338537 eV

  energy without entropy =     -295.76728757  energy(sigma->0) =     -295.77533647


--------------------------------------------------------------------------------------------------------




--------------------------------------- Iteration      1(  18)  ---------------------------------------


    POTLOK:  cpu time    0.5429: real time    0.5448
    SETDIJ:  cpu time    0.0130: real time    0.0137
     EDDAV:  cpu time  508.4157: real time  508.6776
       DOS:  cpu time    0.0040: real time    0.0042
    CHARGE:  cpu time   37.0044: real time   37.0243
    MIXING:  cpu time    0.0210: real time    0.0206
    --------------------------------------------
      LOOP:  cpu time  546.0010: real time  546.2853

 eigenvalue-minimisations  : 18312
 total energy-change (2. order) :-0.5919094E-05  ( 0.1199444E-07)
 number of electron     134.9999915 magnetization      -0.2870750
 augmentation part        7.5611440 magnetization       0.0006460

 DIPCOR: dipole corrections for dipol
 direction  3 min pos    16,
 dipolmoment           0.000000      0.000000     -0.585094 electrons x Angstroem
 Tr[quadrupol]     -2318.268171

 energy correction for charged system         0.000000 eV
 dipol+quadrupol energy correction           -0.018342 eV
 added-field ion interaction        -10.355629 eV  (added to PSCEN)


 Broyden mixing:
  rms(total) = 0.96553E-05    rms(broyden)= 0.96442E-05
  rms(prec ) = 0.14759E-04
  weight for this iteration     100.00

 eigenvalues of (default mixing * dielectric matrix)
  average eigenvalue GAMMA=   1.7211
  6.4789  5.5293  2.5644  2.5644  1.5116  1.5116  1.0925  1.0925  0.9504  0.9504
  0.8560  0.8560  0.7156  0.7156  0.6283  0.6202  0.6202

 Free energy of the ion-electron system (eV)
  ---------------------------------------------------
  alpha Z        PSCENC =        45.21644921
  Ewald energy   TEWEN  =     21840.33001928
  -Hartree energ DENC   =    -26401.20441605
  -exchange      EXHF   =         0.00000000
  -V(xc)+E(xc)   XCENC  =       485.57574544
  PAW double counting   =      2689.20649059    -2819.12234180
  entropy T*S    EENTRO =        -0.01609594
  eigenvalues    EBANDS =     -1610.56054639
  atomic energy  EATOM  =      5474.79130437
  Solvation  Ediel_sol  =         0.00000000
  ---------------------------------------------------
  free energy    TOTEN  =      -295.78339129 eV

  energy without entropy =     -295.76729535  energy(sigma->0) =     -295.77534332


--------------------------------------------------------------------------------------------------------




--------------------------------------- Iteration      1(  19)  ---------------------------------------


    POTLOK:  cpu time    0.5489: real time    0.5491
    SETDIJ:  cpu time    0.0140: real time    0.0137
     EDDAV:  cpu time  503.3095: real time  503.5727
[...]
     93       3.1220      0.00000
     94       3.1460      0.00000
     95       3.3491      0.00000
     96       3.3768      0.00000
     97       3.4028      0.00000
     98       3.6923      0.00000
     99       3.7443      0.00000
    100       3.8541      0.00000
    101       3.8990      0.00000
    102       3.9809      0.00000
    103       4.3321      0.00000
    104       4.3592      0.00000
    105       4.5272      0.00000
    106       4.6022      0.00000
    107       4.6029      0.00000
    108       4.6071      0.00000
    109       4.7425      0.00000
    110       4.7432      0.00000
    111       4.7883      0.00000
    112       4.8037      0.00000
    113       5.0322      0.00000
    114       5.0980      0.00000
    115       5.1003      0.00000
    116       5.1992      0.00000
    117       5.2590      0.00000
    118       5.3244      0.00000
    119       5.3597      0.00000
    120       5.4861      0.00000

 k-point    41 :      -0.1111    0.4444    0.0000
  band No.  band energies     occupation 
      1     -28.1074      1.00000
      2     -28.1073      1.00000
      3     -28.1045      1.00000
      4     -21.3497      1.00000
      5     -21.0096      1.00000
      6     -20.6764      1.00000
      7     -20.1952      1.00000
      8     -19.5548      1.00000
      9     -19.0801      1.00000
     10     -18.9200      1.00000
     11     -18.7519      1.00000
     12     -18.4496      1.00000
     13     -17.8238      1.00000
     14     -17.5300      1.00000
     15     -17.2218      1.00000
     16     -16.6517      1.00000
     17     -16.4044      1.00000
     18     -15.8439      1.00000
     19     -15.4307      1.00000
     20     -14.8104      1.00000
     21     -14.3524      1.00000
     22     -14.1728      1.00000
     23     -14.0646      1.00000
     24     -14.0119      1.00000
     25     -13.4373      1.00000
     26     -13.2252      1.00000
     27     -12.1591      1.00000
     28     -12.0368      1.00000
     29     -11.8945      1.00000
     30     -11.2747      1.00000
     31     -11.2700      1.00000
     32     -10.9279      1.00000
     33     -10.2113      1.00000
     34     -10.1974      1.00000
     35      -9.5697      1.00000
     36      -9.5138      1.00000
     37      -9.3408      1.00000
     38      -9.2263      1.00000
     39      -9.1965      1.00000
     40      -9.0870      1.00000
     41      -8.8987      1.00000
     42      -8.8670      1.00000
     43      -8.6852      1.00000
     44      -8.3010      1.00000
     45      -8.2242      1.00000
     46      -8.1832      1.00000
     47      -8.1271      1.00000
     48      -7.9774      1.00000
     49      -7.8536      1.00000
     50      -7.5410      1.00000
     51      -7.3912      1.00000
     52      -7.0827      1.00000
     53      -6.8627      1.00000
     54      -6.7616      1.00000
     55      -6.6673      1.00000
     56      -6.4900      1.00000
     57      -6.1541      1.00000
     58      -6.1157      1.00000
     59      -5.9909      1.00000
     60      -5.5703      1.00000
     61      -5.5384      1.00000
     62      -5.2092      1.00000
     63      -4.9543      1.00000
     64      -4.4035      1.00000
     65      -4.2822      1.00000
     66      -3.5737      1.00000
     67      -3.0320      1.00000
     68      -1.2639      0.38082
     69      -1.2421      0.17888
     70      -0.8238      0.00000
     71      -0.4168      0.00000
     72      -0.1541      0.00000
     73       0.2875      0.00000
     74       0.5391      0.00000
     75       0.7824      0.00000
     76       0.9261      0.00000
     77       0.9395      0.00000
     78       1.0765      0.00000
     79       1.5935      0.00000
     80       1.6289      0.00000
     81       1.8607      0.00000
     82       2.1027      0.00000
     83       2.1154      0.00000
     84       2.2328      0.00000
     85       2.3212      0.00000
     86       2.3978      0.00000
     87       2.5109      0.00000
     88       2.7114      0.00000
     89       2.8304      0.00000
     90       2.9120      0.00000
     91       2.9549      0.00000
     92       3.0204      0.00000
     93       3.0414      0.00000
     94       3.1792      0.00000
     95       3.3366      0.00000
     96       3.4183      0.00000
     97       3.4595      0.00000
     98       3.6317      0.00000
     99       3.7514      0.00000
    100       3.9507      0.00000
    101       3.9810      0.00000
    102       4.0260      0.00000
    103       4.0560      0.00000
    104       4.1338      0.00000
    105       4.3143      0.00000
    106       4.4146      0.00000
    107       4.5594      0.00000
    108       4.6248      0.00000
    109       4.7757      0.00000
    110       4.8807      0.00000
    111       4.9719      0.00000
    112       4.9809      0.00000
    113       5.0575      0.00000
    114       5.1531      0.00000
    115       5.2198      0.00000
    116       5.2250      0.00000
    117       5.3330      0.00000
    118       5.3535      0.00000
    119       5.4173      0.00000
    120       5.4267      0.00000


--------------------------------------------------------------------------------------------------------


 soft charge-density along one line, spin component           1
         0         1         2         3         4         5         6         7         8         9
 total charge-density along one line
 
 soft charge-density along one line, spin component           2
         0         1         2         3         4         5         6         7         8         9
 total charge-density along one line
 
 pseudopotential strength for first ion, spin component:           1
 10.183   0.018   0.000   0.000   0.000  -0.000  -0.000  -0.000
  0.018  -0.002  -0.000  -0.000  -0.000  -0.000  -0.000  -0.000
  0.000  -0.000  -4.302  -0.000  -0.000  -0.018   0.000  -0.000
  0.000  -0.000  -0.000  -4.296   0.000   0.000  -0.014   0.000
  0.000  -0.000  -0.000   0.000  -4.303  -0.000   0.000  -0.018
 -0.000  -0.000  -0.018   0.000  -0.000  -0.771  -0.000  -0.000
 -0.000  -0.000   0.000  -0.014   0.000  -0.000  -0.771  -0.000
 -0.000  -0.000  -0.000   0.000  -0.018  -0.000  -0.000  -0.771
 pseudopotential strength for first ion, spin component:           2
 10.183   0.018   0.000   0.000   0.000  -0.000  -0.000  -0.000
  0.018  -0.002  -0.000  -0.000  -0.000  -0.000  -0.000  -0.000
  0.000  -0.000  -4.302  -0.000  -0.000  -0.018   0.000  -0.000
  0.000  -0.000  -0.000  -4.296   0.000   0.000  -0.014   0.000
  0.000  -0.000  -0.000   0.000  -4.303  -0.000   0.000  -0.018
 -0.000  -0.000  -0.018   0.000  -0.000  -0.771  -0.000  -0.000
 -0.000  -0.000   0.000  -0.014   0.000  -0.000  -0.771  -0.000
 -0.000  -0.000  -0.000   0.000  -0.018  -0.000  -0.000  -0.771
 total augmentation occupancy for first ion, spin component:           1
  1.467  -1.130  -0.002  -0.002  -0.001  -0.000   0.000   0.000
 -1.130   1.069  -0.001  -0.002  -0.002  -0.000  -0.000  -0.001
 -0.002  -0.001   1.224  -0.001  -0.001   0.222  -0.000  -0.000
 -0.002  -0.002  -0.001   0.941  -0.001  -0.000   0.103  -0.000
 -0.001  -0.002  -0.001  -0.001   1.220  -0.000  -0.000   0.222
 -0.000  -0.000   0.222  -0.000  -0.000   0.046  -0.000   0.000
  0.000  -0.000  -0.000   0.103  -0.000  -0.000   0.013  -0.000
  0.000  -0.001  -0.000  -0.000   0.222   0.000  -0.000   0.046
 total augmentation occupancy for first ion, spin component:           2
 -0.000  -0.000  -0.000   0.000   0.000   0.000  -0.000   0.000
 -0.000  -0.000  -0.000   0.000  -0.000   0.000   0.000   0.000
 -0.000  -0.000   0.000  -0.000   0.000  -0.000  -0.000   0.000
  0.000   0.000  -0.000  -0.000  -0.000  -0.000  -0.000  -0.000
  0.000  -0.000   0.000  -0.000   0.000   0.000  -0.000   0.000
  0.000   0.000  -0.000  -0.000   0.000  -0.000  -0.000  -0.000
 -0.000   0.000  -0.000  -0.000  -0.000  -0.000  -0.000   0.000
  0.000   0.000   0.000  -0.000   0.000  -0.000   0.000  -0.000


------------------------ aborting loop because EDIFF is reached ----------------------------------------


    CHARGE:  cpu time   36.9214: real time   36.9445
    FORLOC:  cpu time    0.0280: real time    0.0278
    FORNL :  cpu time  153.9836: real time  154.0660
    STRESS:  cpu time  457.4925: real time  457.7271
    FORCOR:  cpu time    0.3339: real time    0.3414
    FORHAR:  cpu time    0.0620: real time    0.0612
    MIXING:  cpu time    0.0260: real time    0.0262
    OFIELD:  cpu time    0.0000: real time    0.0001

  FORCE on cell =-STRESS in cart. coord.  units (eV):
  Direction    XX          YY          ZZ          XY          YZ          ZX
  --------------------------------------------------------------------------------------
  Alpha Z    55.59042    55.59042    55.59042
  Ewald   26221.75407 26221.61439-30603.04900    -0.06816     0.02345    -0.04669
  Hartree 25950.35630 25950.24029-25499.38957    -0.05479     0.01373    -0.02789
  E(xc)    -505.24022  -505.24053  -523.49855    -0.00027     0.00002    -0.00005
  Local  -53585.42666-53585.17046 54417.47654     0.12333    -0.03694     0.07402
  n-local  -136.61156  -136.61224  -128.62667    -0.00042     0.00002     0.00007
  augment    29.53117    29.53106    30.72169    -0.00009     0.00000    -0.00003
  Kinetic  1973.53820  1973.53844  2250.63090     0.00002    -0.00025     0.00056
  Fock        0.00000     0.00000     0.00000     0.00000     0.00000     0.00000
  -------------------------------------------------------------------------------------
  Total       3.49172     3.49138    -0.14424    -0.00038     0.00003    -0.00002
  in kB       3.31270     3.31238    -0.13684    -0.00036     0.00003    -0.00002
  external pressure =        2.16 kB  Pullay stress =        0.00 kB


 VOLUME and BASIS-vectors are now :
 -----------------------------------------------------------------------------
  energy-cutoff  :      500.00
  volume of cell :     1688.76
      direct lattice vectors                 reciprocal lattice vectors
     9.874235153  0.000000000  0.000000000     0.101273667  0.058470379  0.000000000
    -4.937117577  8.551338486  0.000000000     0.000000000  0.116940757  0.000000000
     0.000000000  0.000000000 20.000000000     0.000000000  0.000000000  0.050000000

  length of vectors
     9.874235153  9.874235153 20.000000000     0.116940757  0.116940757  0.050000000


 FORCES acting on ions
    electron-ion (+dipol)            ewald-force                    non-local-force                 convergence-correction
 -----------------------------------------------------------------------------------------------
   0.276E+01 0.821E+01 0.148E+02   -.285E+01 -.834E+01 -.150E+02   0.914E-01 0.135E+00 0.135E+00   -.146E-05 -.480E-05 -.295E-04
   -.276E+01 0.821E+01 0.151E+02   0.285E+01 -.834E+01 -.152E+02   -.914E-01 0.135E+00 0.135E+00   0.975E-06 -.490E-05 -.296E-04
   -.172E+01 -.990E+00 0.123E+02   0.178E+01 0.103E+01 -.124E+02   -.520E-01 -.300E-01 0.121E+00   0.103E-05 0.528E-06 -.274E-04
   0.172E+01 -.992E+00 0.114E+02   -.178E+01 0.103E+01 -.115E+02   0.521E-01 -.301E-01 0.882E-01   -.251E-05 0.534E-06 -.272E-04
   0.141E+02 0.814E+01 0.227E+02   -.145E+02 -.836E+01 -.229E+02   0.369E+00 0.213E+00 0.229E+00   -.613E-05 -.359E-05 -.336E-04
   -.226E-02 0.232E+02 0.529E+02   0.188E-02 -.238E+02 -.539E+02   0.248E-03 0.548E+00 0.102E+01   -.381E-06 -.682E-05 -.415E-04
   -.141E+02 0.816E+01 0.209E+02   0.145E+02 -.837E+01 -.211E+02   -.370E+00 0.213E+00 0.174E+00   0.525E-05 -.363E-05 -.336E-04
   -.942E-03 0.198E+01 0.114E+02   0.117E-02 -.206E+01 -.114E+02   0.304E-04 0.602E-01 0.906E-01   -.870E-06 -.221E-05 -.274E-04
   0.849E+01 -.172E+01 0.148E+02   -.865E+01 0.170E+01 -.150E+02   0.162E+00 0.119E-01 0.128E+00   -.508E-05 0.109E-05 -.297E-04
   0.201E+02 -.116E+02 0.526E+02   -.206E+02 0.119E+02 -.536E+02   0.475E+00 -.274E+00 0.101E+01   -.613E-05 0.309E-05 -.415E-04
   -.201E+02 -.116E+02 0.529E+02   0.206E+02 0.119E+02 -.539E+02   -.474E+00 -.274E+00 0.102E+01   0.514E-05 0.287E-05 -.416E-04
   -.849E+01 -.172E+01 0.151E+02   0.865E+01 0.170E+01 -.152E+02   -.162E+00 0.118E-01 0.135E+00   0.412E-05 0.797E-06 -.297E-04
   0.867E-03 -.781E-03 0.116E+02   -.910E-03 0.832E-03 -.117E+02   0.757E-04 -.341E-04 0.105E+00   -.204E-06 -.269E-07 -.269E-04
   0.573E+01 -.650E+01 0.148E+02   -.580E+01 0.664E+01 -.150E+02   0.708E-01 -.147E+00 0.128E+00   -.367E-05 0.364E-05 -.297E-04
   0.130E-02 -.163E+02 0.227E+02   -.137E-02 0.167E+02 -.229E+02   -.587E-04 -.426E+00 0.229E+00   -.588E-06 0.658E-05 -.336E-04
   -.573E+01 -.650E+01 0.148E+02   0.580E+01 0.664E+01 -.150E+02   -.708E-01 -.146E+00 0.135E+00   0.272E-05 0.303E-05 -.296E-04
   0.573E+01 0.650E+01 0.149E+02   -.580E+01 -.664E+01 -.150E+02   0.712E-01 0.147E+00 0.138E+00   -.270E-05 -.307E-05 -.295E-04
   0.163E-02 0.163E+02 0.228E+02   -.194E-02 -.167E+02 -.230E+02   -.202E-03 0.426E+00 0.226E+00   0.625E-06 -.652E-05 -.335E-04
   -.574E+01 0.650E+01 0.147E+02   0.580E+01 -.664E+01 -.148E+02   -.707E-01 0.147E+00 0.142E+00   0.366E-05 -.366E-05 -.297E-04
   -.647E-03 -.367E-03 0.115E+02   0.702E-03 0.440E-03 -.116E+02   -.702E-04 0.528E-04 0.112E+00   0.176E-06 0.194E-07 -.268E-04
   0.849E+01 0.172E+01 0.147E+02   -.865E+01 -.171E+01 -.149E+02   0.162E+00 -.118E-01 0.134E+00   -.416E-05 -.806E-06 -.297E-04
   0.201E+02 0.116E+02 0.527E+02   -.206E+02 -.119E+02 -.537E+02   0.474E+00 0.274E+00 0.101E+01   -.507E-05 -.295E-05 -.416E-04
   -.202E+02 0.116E+02 0.526E+02   0.206E+02 -.119E+02 -.536E+02   -.475E+00 0.274E+00 0.103E+01   0.609E-05 -.304E-05 -.415E-04
   -.850E+01 0.172E+01 0.146E+02   0.866E+01 -.170E+01 -.148E+02   -.162E+00 -.119E-01 0.152E+00   0.507E-05 -.105E-05 -.297E-04
   0.153E-02 -.198E+01 0.122E+02   -.172E-02 0.206E+01 -.123E+02   -.197E-03 -.601E-01 0.110E+00   0.832E-06 0.220E-05 -.274E-04
   0.141E+02 -.814E+01 0.226E+02   -.145E+02 0.836E+01 -.228E+02   0.369E+00 -.213E+00 0.229E+00   -.527E-05 0.364E-05 -.336E-04
   0.375E-02 -.232E+02 0.527E+02   -.381E-02 0.238E+02 -.537E+02   -.231E-03 -.548E+00 0.101E+01   0.521E-06 0.684E-05 -.415E-04
   -.141E+02 -.814E+01 0.228E+02   0.145E+02 0.836E+01 -.230E+02   -.369E+00 -.213E+00 0.227E+00   0.611E-05 0.354E-05 -.336E-04
   -.172E+01 0.991E+00 0.114E+02   0.178E+01 -.103E+01 -.115E+02   -.522E-01 0.301E-01 0.887E-01   0.249E-05 -.572E-06 -.273E-04
   0.172E+01 0.989E+00 0.121E+02   -.178E+01 -.103E+01 -.122E+02   0.520E-01 0.302E-01 0.109E+00   -.102E-05 -.491E-06 -.274E-04
   0.276E+01 -.821E+01 0.148E+02   -.285E+01 0.834E+01 -.150E+02   0.913E-01 -.135E+00 0.123E+00   -.938E-06 0.491E-05 -.297E-04
   -.276E+01 -.821E+01 0.149E+02   0.285E+01 0.834E+01 -.150E+02   -.913E-01 -.135E+00 0.137E+00   0.145E-05 0.479E-05 -.295E-04
   0.517E-01 -.304E-01 -.737E+03   -.519E-01 0.309E-01 0.733E+03   0.198E-03 -.472E-03 0.423E+01   -.120E-07 0.274E-07 -.150E-03
 -----------------------------------------------------------------------------------------------
   0.106E-02 -.223E-03 -.141E+02   -.132E-13 0.214E-13 0.000E+00   -.116E-02 0.425E-03 0.141E+02   0.684E-07 -.291E-07 -.117E-02
 
 
 POSITION                                       TOTAL-FORCE (eV/Angst)
 -----------------------------------------------------------------------------------
      1.23329      0.71105     10.00000         0.001082      0.005672     -0.010686
      3.70383      0.71105      9.99949        -0.000863      0.005485     -0.009420
      6.17176      0.71283     10.00000         0.014376      0.008047      0.025016
      8.63959      0.71282     10.00172        -0.014370      0.008258      0.000734
     -0.00416      2.84804      9.99579        -0.006637     -0.003637      0.005184
      2.46855      2.84552      9.98311        -0.000130      0.005639      0.011046
      4.94129      2.84804     10.00000         0.004861     -0.002845     -0.033984
      7.40567      2.85002     10.00218         0.000260     -0.016424      0.002797
     -1.23613      4.98821      9.99992         0.005336     -0.002177     -0.014922
      1.23001      4.99075      9.98367         0.005225     -0.003093      0.006328
      3.70710      4.99075      9.98316        -0.004861     -0.002708      0.011419
      6.17324      4.98821      9.99957        -0.005111     -0.001933     -0.008714
     -2.46856      7.12612     10.00001         0.000035      0.000011      0.002520
     -0.00086      7.12775      9.99979         0.004668     -0.003473     -0.016076
      2.46856      7.13092      9.99571        -0.000132      0.007403      0.004508
      4.93797      7.12775     10.00000        -0.004309     -0.003772     -0.011098
     -0.00086      1.42358     10.00000         0.004832      0.003846     -0.007736
      2.46857      1.42042      9.99551        -0.000509     -0.006887      0.005026
      4.93797      1.42359     10.00076        -0.004213      0.003277     -0.007220
      7.40568      1.42522     10.00062        -0.000012      0.000120      0.009926
     -1.23613      3.56313     10.00041         0.005528      0.001942     -0.012937
      1.23001      3.56059      9.98340         0.005042      0.003208      0.002992
      3.70709      3.56061      9.98431        -0.003862      0.002164      0.014841
      6.17324      3.56314     10.00128        -0.005036      0.002082     -0.001370
     -2.46856      5.70132     10.00000        -0.000381      0.016247      0.015999
     -0.00418      5.70330      9.99585        -0.005723      0.003294      0.005868
      2.46857      5.70582      9.98347        -0.000293     -0.005762      0.003479
      4.94129      5.70329      9.99547         0.005615      0.003875      0.004913
     -3.70247      7.83851     10.00160         0.013937     -0.008072      0.000625
     -1.23465      7.83851     10.00000        -0.014314     -0.007832      0.014549
      1.23329      7.84029      9.99981         0.000922     -0.005855     -0.019946
      3.70383      7.84029     10.00000        -0.000942     -0.006079     -0.009624
      2.46856      4.27567     12.29870        -0.000017     -0.000020      0.015965
 -----------------------------------------------------------------------------------
    total drift:                               -0.000095      0.000202      0.006679


--------------------------------------------------------------------------------------------------------



  FREE ENERGIE OF THE ION-ELECTRON SYSTEM (eV)
  ---------------------------------------------------
  free  energy   TOTEN  =      -295.78340189 eV

  energy  without entropy=     -295.76730528  energy(sigma->0) =     -295.77535358
 


--------------------------------------------------------------------------------------------------------


    POTLOK:  cpu time    0.5599: real time    0.5604


--------------------------------------------------------------------------------------------------------


 writing wavefunctions
     LOOP+:  cpu time13967.8206: real time14010.2671
    4ORBIT:  cpu time    0.0000: real time    0.0000

 total amount of memory used by VASP MPI-rank0   586528. kBytes
=======================================================================

   base      :      30000. kBytes
   nonlr-proj:      20989. kBytes
   fftplans  :      16807. kBytes
   grid      :     235296. kBytes
   one-center:        202. kBytes
   wavefun   :     283234. kBytes
 
  
  
 General timing and accounting informations for this job:
 ========================================================
  
                  Total CPU time used (sec):    14303.549
                            User time (sec):    14184.541
                          System time (sec):      119.008
                         Elapsed time (sec):    14426.994
  
                   Maximum memory used (kb):           0.
                   Average memory used (kb):           0.
  
                          Minor page faults:     24618245
                          Major page faults:           80
                 Voluntary context switches:        14567
