LAMMPS data file via write_data, version 15 May 2015, timestep = 1971055

7663 atoms
10 atom types
7592 bonds
8 bond types
10831 angles
11 angle types
19044 dihedrals
13 dihedral types

0.0000000000000000e+00 6.3000000000000000e+01 xlo xhi
0.0000000000000000e+00 1.1154400000000000e+02 ylo yhi
0.0000000000000000e+00 1.0000000000000000e+01 zlo zhi

Masses

1	12.011  	# CA
2	12.011		# CT
3	15.9994		# OS
4	12.011		# CF
5	15.9994		# OH
6	1.0008		# HO
7	1.0008		# HW
8	15.9994		# OW
9	39.0980		# K		
10	35.4500		# Cl

Atoms # full

4 1 1 0.0000000000000000e+00 2.8000522035502322e+00 1.2102304364763761e+00 4.9793373443437119e+00 0 0 0
5 1 1 0.0000000000000000e+00 4.2001443906969476e+00 1.2111716031838369e+00 5.0006158403766330e+00 0 0 0
76 1 4 1.4999999999999999e-01 6.9975052800726478e-01 2.4352691602016678e+00 5.2054491357859591e+00 0 0 0
77 1 5 -5.8499999999999996e-01 6.9624440451805725e-01 2.5141995849759988e+00 6.5670669949342892e+00 0 0 0
78 1 6 4.3500000000000000e-01 1.1357729836367054e+00 1.7808657837337003e+00 7.0212227011092621e+00 0 0 0
79 1 1 0.0000000000000000e+00 2.1005456046840156e+00 2.4242257422553548e+00 4.9791400334557769e+00 0 0 0
80 1 1 0.0000000000000000e+00 2.8005284511040860e+00 3.6369225054055128e+00 4.9770222263242632e+00 0 0 0
81 1 1 0.0000000000000000e+00 4.2007711876188640e+00 3.6364210832680666e+00 4.9821705598523200e+00 0 0 0
82 1 1 0.0000000000000000e+00 4.9002202987148857e+00 2.4237653072085821e+00 5.0080524522654493e+00 0 0 0
83 1 1 0.0000000000000000e+00 6.3004890618306577e+00 2.4233137567410945e+00 4.9951583287033925e+00 0 0 0
144 1 1 0.0000000000000000e+00 6.9965792732851551e-01 4.8521093814222889e+00 4.9945646720210206e+00 0 0 0
145 1 1 0.0000000000000000e+00 2.1002084783885202e+00 4.8497222387696137e+00 5.0047231309396860e+00 0 0 0
146 1 1 0.0000000000000000e+00 2.8005009900176980e+00 6.0620421669594462e+00 4.9979989230436743e+00 0 0 0
147 1 1 0.0000000000000000e+00 4.2009654571008488e+00 6.0614560442251957e+00 4.9931736150715098e+00 0 0 0
148 1 1 0.0000000000000000e+00 4.9014836606606496e+00 4.8483525949289259e+00 4.9966455827878962e+00 0 0 0
149 1 4 1.4999999999999999e-01 6.3032180498489083e+00 4.8446641844820943e+00 5.2247125079216410e+00 0 0 0
150 1 5 -5.8499999999999996e-01 6.3171471211390697e+00 4.7927548759069181e+00 6.5914090591934693e+00 0 0 0
151 1 6 4.3500000000000000e-01 6.8719524070569245e+00 5.4643608254749179e+00 6.9988584348924929e+00 0 0 0
1 1 1 0.0000000000000000e+00 3.5111837653390501e-03 1.2142209605490530e+00 4.9892292517249093e+00 0 0 0
3351 14 8 -8.4719999999999995e-01 9.3769875872305541e-01 5.7405440640050749e+00 1.9915323918238725e+00 0 0 0
3572 88 7 4.2359999999999998e-01 5.0366462688077638e+00 3.2270598697741053e+00 6.9868147851884466e+00 1 1 -1
3573 88 8 -8.4719999999999995e-01 4.3583524623886465e+00 3.0939769163174131e+00 7.7094533093889561e+00 1 1 -1
5072 588 7 4.2359999999999998e-01 4.0474448409870876e+00 2.5005672744546712e+00 2.5629799351154738e+00 0 1 0
5073 588 8 -8.4719999999999995e-01 4.4723124130153300e+00 2.9415843966787047e+00 1.7724158130556464e+00 0 1 0
3571 88 7 4.2359999999999998e-01 3.9240138013703594e+00 3.9687736220340688e+00 7.9241173860844993e+00 1 1 -1
3349 14 7 4.2359999999999998e-01 1.3267928183173652e+00 4.9346457302786533e+00 1.5452883666722599e+00 0 0 0
7404 1365 8 -8.4719999999999995e-01 5.9292884678397897e+00 1.6263696387276534e+00 9.5931329835195047e+00 0 0 -1
5796 829 8 -8.4719999999999995e-01 2.2108024056631694e+00 3.8910842229530318e+00 5.2544093482644927e-01 0 1 0
5794 829 7 4.2359999999999998e-01 3.0197947080962586e+00 3.5141514506527374e+00 9.7649875865669600e-01 0 1 0
5071 588 7 4.2359999999999998e-01 5.1451103741041129e+00 2.3226573673744899e+00 1.3671098850153958e+00 0 1 0
5662 785 7 4.2359999999999998e-01 5.4028768167014096e+00 5.9999585374661679e+00 1.2750747685981572e+00 0 0 0
6728 1140 7 4.2359999999999998e-01 2.3100829964010110e+00 5.9520991380645167e+00 8.8331387663564875e+00 0 0 -1
6729 1140 8 -8.4719999999999995e-01 3.1184209145452169e+00 5.5484703535367261e+00 8.4045665798953202e+00 0 0 -1
5795 829 7 4.2359999999999998e-01 2.4875571837743613e+00 4.3779548722120616e+00 9.6969701946057665e+00 0 1 -1
5664 785 8 -8.4719999999999995e-01 5.7071196870756760e+00 5.4340941057626457e+00 2.0413866202639817e+00 0 0 0
5663 785 7 4.2359999999999998e-01 5.4219775613686574e+00 4.4875443214024040e+00 1.8905950514633327e+00 0 0 0
6727 1140 7 4.2359999999999998e-01 3.7957113100769293e+00 6.2634102464336481e+00 8.2309586142186681e+00 0 0 -1
7403 1365 7 4.2359999999999998e-01 5.5525787356554028e+00 2.3607929860402317e+00 9.0285863336129317e+00 0 0 -1
3906 199 8 -8.4719999999999995e-01 2.3369063920260271e+00 1.0775180014743289e+00 8.0459663773232624e+00 0 1 -1
5237 643 7 4.2359999999999998e-01 1.0071836125063525e+00 2.6594903084028902e+00 1.4358425491787359e+00 0 0 0
5236 643 7 4.2359999999999998e-01 1.7955225578251548e+00 1.2329904103966163e+00 1.3346187985464246e+00 0 0 0
5238 643 8 -8.4719999999999995e-01 1.0278029236872539e+00 1.7132951340248335e+00 1.7587814546441778e+00 0 0 0
5420 704 7 4.2359999999999998e-01 4.0621740418959877e+00 6.8667503641981309e+00 2.4966284345742875e+00 1 0 0
5748 813 8 -8.4719999999999995e-01 4.6866442081358439e-01 6.5313980456197127e+00 9.4801546864179063e+00 0 1 -1
7402 1365 7 4.2359999999999998e-01 6.6979278299075826e+00 1.2001313938396774e+00 9.1161471789728825e+00 0 0 -1
3350 14 7 4.2359999999999998e-01 1.6681617385718122e+00 6.3902409971668375e+00 2.2020502443780541e+00 0 0 0
3904 199 7 4.2359999999999998e-01 3.0227872644401832e+00 1.8040260632273784e+00 8.0878407504225560e+00 0 1 -1
4882 525 7 4.2359999999999998e-01 6.3450393344639995e+00 3.4704391890747016e-01 1.3388497473566119e+00 1 0 0
4883 525 7 4.2359999999999998e-01 6.6656917932622388e+00 2.8207675153694839e-01 2.9387209614469976e+00 1 0 0
5747 813 7 4.2359999999999998e-01 5.7753403339900422e-01 6.3680904277176165e+00 4.6070542208265358e-01 0 1 0
7274 1322 7 4.2359999999999998e-01 2.8819565123231028e-01 1.2368763420313640e+00 9.7063106815428739e+00 1 0 -1
5861 851 7 4.2359999999999998e-01 2.9216018025562080e+00 1.6422985910223214e-02 9.8074382076108737e+00 0 0 -1
3397 30 7 4.2359999999999998e-01 7.5131760052022596e+00 5.7086155013484703e+00 2.3533494859882929e+00 0 1 0
7495 1396 7 4.2359999999999998e-01 8.6452122958498379e+00 5.1511020442512923e+00 8.9761160397037738e+00 0 0 -1
7497 1396 8 -8.4719999999999995e-01 9.0050787281960716e+00 4.2472120194169873e+00 9.2073726844384201e+00 0 0 -1
5234 642 7 4.2359999999999998e-01 9.9730935168307493e+00 1.5562062947161592e+00 8.0524507825312295e+00 0 0 -1
5235 642 8 -8.4719999999999995e-01 9.0095985731358788e+00 1.8126955455919647e+00 7.9756957309093091e+00 0 0 -1
5233 642 7 4.2359999999999998e-01 8.8845252181711825e+00 2.7444142348880094e+00 8.3166619469940635e+00 0 0 -1
16 1 1 0.0000000000000000e+00 1.3300636354496675e+01 1.5127208105094622e-03 5.0024727664492543e+00 0 0 0
8 1 1 0.0000000000000000e+00 7.0009672152332740e+00 1.2112592171601302e+00 4.9910291876792918e+00 0 0 0
9 1 4 1.4999999999999999e-01 8.4025786609851369e+00 1.2113075462226619e+00 4.7666901333112763e+00 0 0 0
10 1 5 -5.8499999999999996e-01 8.4037935631366469e+00 1.1894210665851996e+00 3.4010340713453595e+00 0 0 0
11 1 6 4.3500000000000000e-01 8.6893533966867444e+00 2.0178554416556835e+00 2.9991741186246585e+00 0 0 0
14 1 1 0.0000000000000000e+00 1.1200055703803061e+01 1.2126817138737309e+00 5.0024073413212991e+00 0 0 0
15 1 1 0.0000000000000000e+00 1.2599879728807394e+01 1.2132258415684485e+00 4.9920981356015925e+00 0 0 0
84 1 1 0.0000000000000000e+00 7.0006261871817808e+00 3.6351757889130374e+00 4.9820585525048626e+00 0 0 0
85 1 1 0.0000000000000000e+00 8.4001226182450903e+00 3.6367553382907989e+00 4.9973373229491846e+00 0 0 0
86 1 1 0.0000000000000000e+00 9.1005712710916669e+00 2.4252503931069480e+00 4.9928128512192380e+00 0 0 0
87 1 1 0.0000000000000000e+00 1.0500172383835350e+01 2.4249460466538393e+00 5.0118770906976726e+00 0 0 0
88 1 1 0.0000000000000000e+00 1.1199745880282784e+01 3.6373718459773117e+00 5.0178260754771937e+00 0 0 0
89 1 1 0.0000000000000000e+00 1.2599752003172807e+01 3.6376803515856007e+00 5.0134579375304602e+00 0 0 0
90 1 1 0.0000000000000000e+00 1.3299780053609412e+01 2.4256925517932224e+00 5.0003493233364233e+00 0 0 0
152 1 1 0.0000000000000000e+00 7.0002250690274863e+00 6.0609526297731193e+00 5.0000822830198537e+00 0 0 0
153 1 1 0.0000000000000000e+00 8.3998629960869149e+00 6.0617957007732368e+00 4.9891798378216663e+00 0 0 0
154 1 1 0.0000000000000000e+00 9.0993539487186670e+00 4.8494164909561164e+00 5.0156176692115659e+00 0 0 0
155 1 1 0.0000000000000000e+00 1.0499069819935213e+01 4.8493246957092300e+00 5.0197405929383088e+00 0 0 0
156 1 1 0.0000000000000000e+00 1.1198094522035731e+01 6.0616723292738595e+00 5.0142614872791924e+00 0 0 0
157 1 1 0.0000000000000000e+00 1.2597242732028455e+01 6.0608660999608688e+00 5.0106287370852014e+00 0 0 0
158 1 1 0.0000000000000000e+00 1.3299652204627380e+01 4.8500395997948198e+00 5.0152074830824951e+00 0 0 0
7183 1292 7 4.2359999999999998e-01 9.0689774163196120e+00 4.0969801279110989e+00 2.2467528711025890e+00 1 1 0
7185 1292 8 -8.4719999999999995e-01 9.5276128964787254e+00 3.2141679686453259e+00 2.1452827297216812e+00 1 1 0
7184 1292 7 4.2359999999999998e-01 1.0502869707473820e+01 3.3621495112912139e+00 1.9810401292566597e+00 1 1 0
7599 1430 8 -8.4719999999999995e-01 1.2174455118969840e+01 4.0301801280144076e+00 1.8499686736811816e+00 0 1 0
7597 1430 7 4.2359999999999998e-01 1.2724005981611926e+01 4.0105101503401785e+00 1.0147399837915845e+00 0 1 0
5082 591 8 -8.4719999999999995e-01 1.0955998041740694e+01 6.1987961856847722e+00 9.1616074276321342e+00 0 1 -1
7496 1396 7 4.2359999999999998e-01 8.4090437721028675e+00 3.8141533103054921e+00 9.8835404520641941e+00 0 0 -1
5080 591 7 4.2359999999999998e-01 1.0364034200228328e+01 5.4069373109403891e+00 9.0114760956347641e+00 0 1 -1
3399 30 8 -8.4719999999999995e-01 8.4071561721400219e+00 5.7406989084793905e+00 1.9063929432712166e+00 0 1 0
3398 30 7 4.2359999999999998e-01 8.6622947783923596e+00 6.6930616388513844e+00 1.7393312856690062e+00 0 1 0
4949 547 7 4.2359999999999998e-01 1.2484876016991652e+01 2.8325531182828656e+00 8.7848691998610171e+00 -1 0 -1
4950 547 8 -8.4719999999999995e-01 1.2283503969305599e+01 1.9638178926109251e+00 8.3323765769100557e+00 -1 0 -1
4948 547 7 4.2359999999999998e-01 1.3105707600513741e+01 1.6294997222560077e+00 7.8717110826619958e+00 -1 0 -1
4473 388 8 -8.4719999999999995e-01 1.3262036299129903e+01 1.1997443396874405e+00 1.9898099648485117e+00 0 0 0
4472 388 7 4.2359999999999998e-01 1.2886437084872481e+01 2.1249384876786994e+00 2.0440483158018750e+00 0 0 0
4401 364 8 -8.4719999999999995e-01 7.4443259866938849e+00 6.6708999526951445e+00 8.1288554756138645e+00 0 1 -1
4925 539 7 4.2359999999999998e-01 8.1341516011756099e+00 2.3373328927059897e-01 7.4746557756087775e+00 0 1 -1
7092 1261 8 -8.4719999999999995e-01 1.3015590805733801e+01 4.3684549753831625e+00 9.2977466703847131e+00 1 0 -1
7090 1261 7 4.2359999999999998e-01 1.2429945465565961e+01 5.1717064204830896e+00 9.1890806707931603e+00 1 0 -1
3519 70 8 -8.4719999999999995e-01 1.1186525216694651e+01 6.6495776747729529e+00 1.8319881075816100e+00 1 1 0
3518 70 7 4.2359999999999998e-01 1.1125789978792524e+01 6.9810372978438018e+00 8.9047520502915967e-01 1 1 0
4471 388 7 4.2359999999999998e-01 1.2515254174703617e+01 5.4213634085465923e-01 1.8904664723536742e+00 0 0 0
3575 89 7 4.2359999999999998e-01 1.0240172870099720e+01 1.0202844947002996e+00 1.6266846027163020e+00 0 0 0
7598 1430 7 4.2359999999999998e-01 1.1912002398084727e+01 4.9732770673911180e+00 2.0541419850821692e+00 0 1 0
3974 222 7 4.2359999999999998e-01 1.1803019443542368e+01 2.0945163661220534e-01 8.6978007847705090e+00 1 0 -1
5606 766 7 4.2359999999999998e-01 1.9079605054377097e+01 6.4494991539071664e+00 2.6522534989026805e+00 0 0 0
6374 1022 7 4.2359999999999998e-01 1.4497425593035782e+01 1.3839042200733016e+00 8.6985914307394374e-01 0 1 0
7091 1261 7 4.2359999999999998e-01 1.3842655183266279e+01 4.4820326898535621e+00 8.7472335349344021e+00 1 0 -1
4282 325 7 4.2359999999999998e-01 1.6857433393069307e+01 1.2885878716265109e+00 9.5622740437279070e+00 0 0 -1
5547 746 8 -8.4719999999999995e-01 1.8392331605396638e+01 5.9631343342612677e+00 7.8990320702841110e+00 1 1 -1
5546 746 7 4.2359999999999998e-01 1.7687748589548551e+01 6.6654366515296557e+00 7.7973730234682570e+00 1 1 -1
5545 746 7 4.2359999999999998e-01 1.8400394221185437e+01 5.6332667496279543e+00 8.8430249786005124e+00 1 1 -1
23 1 1 0.0000000000000000e+00 1.8900092267280929e+01 8.7861865786386241e-04 5.0157716067198788e+00 0 0 0
25 1 1 0.0000000000000000e+00 2.0999715280321922e+01 1.2128576964446549e+00 5.0082778947236521e+00 0 0 0
22 1 1 0.0000000000000000e+00 1.7500134878798121e+01 1.9055702195235429e-03 5.0096831470717538e+00 0 0 0
18 1 1 0.0000000000000000e+00 1.5399153163136143e+01 1.2140992883866313e+00 4.9944951566677167e+00 0 0 0
19 1 4 1.4999999999999999e-01 1.6801822714895611e+01 1.2177633121496865e+00 4.7860196833451569e+00 0 0 0
20 1 5 -5.8499999999999996e-01 1.6837253470507751e+01 1.2480601836443170e+00 3.4267522024107988e+00 0 0 0
21 1 6 4.3500000000000000e-01 1.5981562975511309e+01 1.2806517712128813e+00 2.9966508246271015e+00 0 0 0
24 1 1 0.0000000000000000e+00 1.9600042549768169e+01 1.2131986382599289e+00 5.0051896486614158e+00 0 0 0
91 1 1 0.0000000000000000e+00 1.4699823871263288e+01 2.4263583997200202e+00 5.0048311659930871e+00 0 0 0
92 1 1 0.0000000000000000e+00 1.5400240103635820e+01 3.6387697370025420e+00 5.0021828218130890e+00 0 0 0
93 1 1 0.0000000000000000e+00 1.6800235341209586e+01 3.6396079686397207e+00 5.0287459136746770e+00 0 0 0
94 1 1 0.0000000000000000e+00 1.7501133784911492e+01 2.4274768996619689e+00 5.0248189549678814e+00 0 0 0
95 1 1 0.0000000000000000e+00 1.8901073695475496e+01 2.4261390417403930e+00 5.0269444055086856e+00 0 0 0
96 1 1 0.0000000000000000e+00 1.9601268220366723e+01 3.6387907583227586e+00 5.0240585865412486e+00 0 0 0
159 1 1 0.0000000000000000e+00 1.4700230048716115e+01 4.8511291047234213e+00 5.0047332083483758e+00 0 0 0
160 1 1 0.0000000000000000e+00 1.5399990120241503e+01 6.0642110860732519e+00 5.0185455308812914e+00 0 0 0
161 1 1 0.0000000000000000e+00 1.6801393137600101e+01 6.0664600396100807e+00 5.0085741196340576e+00 0 0 0
162 1 1 0.0000000000000000e+00 1.7500263639397762e+01 4.8526161647031101e+00 5.0265520060232731e+00 0 0 0
163 1 1 0.0000000000000000e+00 1.8900714989153592e+01 4.8511279317222398e+00 5.0107949301032573e+00 0 0 0
164 1 1 0.0000000000000000e+00 1.9601121938510879e+01 6.0626783991052235e+00 5.0450779267231987e+00 0 0 0
17 1 1 0.0000000000000000e+00 1.4700453941573551e+01 1.0440259450073968e-03 4.9985175857425181e+00 0 0 0
4611 434 8 -8.4719999999999995e-01 1.6127844433823238e+01 3.9437939367283983e+00 1.2375333950765151e+00 1 0 0
4610 434 7 4.2359999999999998e-01 1.5793304689756845e+01 3.0119057631661366e+00 1.0972907160719003e+00 1 0 0
4609 434 7 4.2359999999999998e-01 1.7117489165017719e+01 3.9675000621790688e+00 1.0959630216891323e+00 1 0 0
3504 65 8 -8.4719999999999995e-01 1.8768411706704139e+01 4.0087575842301808e+00 4.0749443357668957e-01 0 1 0
5426 706 7 4.2359999999999998e-01 1.5650125785146569e+01 5.7748370144430394e+00 1.9706390838120484e+00 -1 1 0
6098 930 7 4.2359999999999998e-01 1.8413812948202946e+01 9.2588851219762169e-01 2.6076488490462548e+00 0 1 0
6099 930 8 -8.4719999999999995e-01 1.9002115136455611e+01 8.8722344091005489e-01 1.7999321059789983e+00 0 1 0
6097 930 7 4.2359999999999998e-01 1.8501967082022141e+01 1.2338526865542525e+00 1.0063948534006388e+00 0 1 0
5425 706 7 4.2359999999999998e-01 1.4718071790603032e+01 6.9775079536206617e+00 2.5635014258361424e+00 -1 1 0
4284 325 8 -8.4719999999999995e-01 1.7840882855695657e+01 1.3625533628638669e+00 9.3968727599108206e+00 0 0 -1
3503 65 7 4.2359999999999998e-01 1.9509794210544250e+01 3.3490907250560098e+00 2.8424016217097037e-01 0 1 0
3502 65 7 4.2359999999999998e-01 1.9081587254330866e+01 4.7566407129884709e+00 9.9280795592573989e-01 0 1 0
6375 1022 8 -8.4719999999999995e-01 1.5283070767257325e+01 1.3583383830036035e+00 2.5171022151485684e-01 0 1 0
5427 706 8 -8.4719999999999995e-01 1.5547965580993894e+01 6.7666743035540398e+00 2.0469487838215925e+00 -1 1 0
4283 325 7 4.2359999999999998e-01 1.8052471918849747e+01 2.2755444662416298e+00 9.0480497008024852e+00 0 0 -1
6373 1022 7 4.2359999999999998e-01 1.5041100921023798e+01 8.4871018396636877e-01 9.4260409523771003e+00 0 1 -1
5945 879 7 4.2359999999999998e-01 2.0339930969758822e+01 6.0401543033887828e+00 7.8843907774123201e+00 -1 0 -1
5607 766 8 -8.4719999999999995e-01 1.9772459862714356e+01 6.1430177869445455e+00 1.9995500714797199e+00 0 0 0
5605 766 7 4.2359999999999998e-01 2.0583636223023920e+01 5.8331067149554610e+00 2.4954819752841306e+00 0 0 0
4160 284 7 4.2359999999999998e-01 2.0200016636769078e+01 1.6370687849034235e-01 8.3577887422180996e+00 0 0 -1
4161 284 8 -8.4719999999999995e-01 2.0723540600871022e+01 1.0156794481612590e+00 8.3659255419989282e+00 0 0 -1
5911 868 7 4.2359999999999998e-01 2.0932654891402699e+01 4.8226600237407730e-01 1.6613310508805401e+00 -1 0 0
5419 704 7 4.2359999999999998e-01 3.4072282562123122e+00 8.0838480781153024e+00 1.6269469884224532e+00 1 0 0
5421 704 8 -8.4719999999999995e-01 3.2570669101620071e+00 7.1609992071284259e+00 1.9816329428733397e+00 1 0 0
6511 1068 7 4.2359999999999998e-01 4.0059957725341105e-01 9.6541303924994200e+00 8.3928746043733433e+00 0 0 -1
7053 1248 8 -8.4719999999999995e-01 2.0017821462099494e+00 8.7688061000099360e+00 9.1099321751588693e+00 0 1 -1
6077 923 7 4.2359999999999998e-01 3.4096580563161698e+00 8.2208476167459530e+00 8.2979372971004075e+00 0 1 -1
7051 1248 7 4.2359999999999998e-01 2.1252848940664930e+00 9.1092252365650630e+00 4.2059801278385767e-02 0 1 0
6078 923 8 -8.4719999999999995e-01 4.3185724621679267e+00 7.9406735036730405e+00 7.9891031379081445e+00 0 1 -1
6076 923 7 4.2359999999999998e-01 4.6721434867746137e+00 8.6138957451245428e+00 7.3396728884764695e+00 0 1 -1
4693 462 7 4.2359999999999998e-01 5.5348082977520745e+00 9.4379157949790251e+00 1.0193528367457174e+00 0 1 0
4695 462 8 -8.4719999999999995e-01 5.4792163172037798e+00 8.4899311836993849e+00 7.0592865513643643e-01 0 1 0
3629 107 7 4.2359999999999998e-01 3.4181282473568624e+00 1.0534517471308222e+01 1.6185125615020364e+00 0 1 0
3630 107 8 -8.4719999999999995e-01 2.7441679760997686e+00 9.8003275219861052e+00 1.7006348182433639e+00 0 1 0
3628 107 7 4.2359999999999998e-01 2.1522065393995251e+00 9.9776812748371793e+00 2.4868462862817671e+00 0 1 0
216 1 1 0.0000000000000000e+00 6.9995093302191380e-01 7.2763761306113226e+00 5.0156786890454086e+00 0 0 0
217 1 1 0.0000000000000000e+00 2.1002194075152731e+00 7.2747455107073771e+00 5.0049499137490479e+00 0 0 0
218 1 1 0.0000000000000000e+00 2.8000665118618464e+00 8.4869417815459176e+00 5.0140546850287953e+00 0 0 0
219 1 1 0.0000000000000000e+00 4.2004022039529003e+00 8.4869468771243159e+00 5.0120705516141957e+00 0 0 0
220 1 1 0.0000000000000000e+00 4.9002136255783091e+00 7.2742391666979289e+00 5.0079468726801766e+00 0 0 0
221 1 1 0.0000000000000000e+00 6.3000624799009310e+00 7.2737615362663091e+00 4.9924591187815697e+00 0 0 0
286 1 4 1.4999999999999999e-01 7.0190453960256738e-01 9.7003010489469812e+00 4.7559415939354270e+00 0 0 0
287 1 5 -5.8499999999999996e-01 7.3699220379507069e-01 9.6940477786213641e+00 3.3883434432458106e+00 0 0 0
289 1 1 0.0000000000000000e+00 2.1000435542668918e+00 9.6994025296535415e+00 4.9978057701823282e+00 0 0 0
290 1 1 0.0000000000000000e+00 2.8003634136523892e+00 1.0911697806107671e+01 4.9984732350407999e+00 0 0 0
291 1 1 0.0000000000000000e+00 4.2006848816351834e+00 1.0912004650686027e+01 5.0068444334359281e+00 0 0 0
292 1 1 0.0000000000000000e+00 4.9008154162436171e+00 9.6994888653122526e+00 4.9990973702744341e+00 0 0 0
293 1 1 0.0000000000000000e+00 6.3013394705491743e+00 9.6993392036872557e+00 4.9896878897073647e+00 0 0 0
358 1 1 0.0000000000000000e+00 6.9884061103139405e-01 1.2124037026808178e+01 5.0003067488562074e+00 0 0 0
359 1 1 0.0000000000000000e+00 2.0995880745919244e+00 1.2123525971875434e+01 4.9947056425348988e+00 0 0 0
360 1 4 1.4999999999999999e-01 2.8008826422772750e+00 1.3335524329610527e+01 5.2208770574314256e+00 0 0 0
361 1 5 -5.8499999999999996e-01 2.8169980191065549e+00 1.3333451823031066e+01 6.5861975032767210e+00 0 0 0
362 1 6 4.3500000000000000e-01 2.6883769568302589e+00 1.2459250753739731e+01 6.9671345239649520e+00 0 0 0
363 1 1 0.0000000000000000e+00 4.1999594617094704e+00 1.3337032736254248e+01 4.9804818229037648e+00 0 0 0
364 1 1 0.0000000000000000e+00 4.9005558186120677e+00 1.2124291138191916e+01 4.9776768889406684e+00 0 0 0
365 1 1 0.0000000000000000e+00 6.3012238862348102e+00 1.2123772327586261e+01 4.9806848934559724e+00 0 0 0
5777 823 7 4.2359999999999998e-01 3.0355994730896407e+00 1.0568254493664954e+01 8.4992509555269624e+00 1 0 -1
5776 823 7 4.2359999999999998e-01 3.9876218939289223e+00 1.1893466533785514e+01 8.5632266994133595e+00 1 0 -1
5778 823 8 -8.4719999999999995e-01 3.8917068405174429e+00 1.0974752457369345e+01 8.1801275305742358e+00 1 0 -1
6927 1206 8 -8.4719999999999995e-01 2.5393811529370494e+00 1.2708894881243479e+01 9.8959324201340664e+00 0 0 -1
6926 1206 7 4.2359999999999998e-01 3.1888054142006466e+00 1.3469251149068631e+01 9.9063038364627047e+00 0 0 -1
6925 1206 7 4.2359999999999998e-01 2.6333698833885038e+00 1.2178760228824112e+01 7.3862074850801651e-01 0 0 0
4694 462 7 4.2359999999999998e-01 5.2897020025301362e+00 8.4740303636970822e+00 9.7241793831803633e+00 0 1 -1
5960 884 7 4.2359999999999998e-01 5.4338514001945102e+00 1.1430363601912997e+01 2.2742818551535513e+00 0 1 0
7052 1248 7 4.2359999999999998e-01 1.4657779700071507e+00 7.9248683153704178e+00 9.1315787187589361e+00 0 1 -1
5961 884 8 -8.4719999999999995e-01 4.4922411976064902e+00 1.1679960634727669e+01 2.0482906393129277e+00 0 1 0
5033 575 7 4.2359999999999998e-01 5.8631116023943655e+00 1.0377381024784123e+01 8.1669940778199965e+00 1 1 -1
5959 884 7 4.2359999999999998e-01 4.4292152894300951e+00 1.2671004758057213e+01 1.9305635024638921e+00 0 1 0
5034 575 8 -8.4719999999999995e-01 6.7723445363895562e+00 1.0036892201672808e+01 8.4065003354012902e+00 1 1 -1
4400 364 7 4.2359999999999998e-01 6.4879984065505658e+00 6.9631892290328619e+00 8.1266797120920025e+00 0 1 -1
3770 154 7 4.2359999999999998e-01 8.8449987823865284e-01 1.2464084450389400e+01 9.2035125482668594e+00 0 0 -1
5081 591 7 4.2359999999999998e-01 1.0537084170284594e+01 7.0101727359587942e+00 8.7539555161619820e+00 0 1 -1
7294 1329 7 4.2359999999999998e-01 7.0854638382532960e+00 1.0921579995054501e+01 9.9490500169155904e+00 0 0 -1
7296 1329 8 -8.4719999999999995e-01 7.4910278536828088e+00 1.0939565778964070e+01 8.6293983151587583e-01 0 0 0
5032 575 7 4.2359999999999998e-01 7.4484572782202321e+00 1.0421287760086582e+01 7.7779203783111637e+00 1 1 -1
7295 1329 7 4.2359999999999998e-01 8.1782841434422409e+00 1.1664556881740509e+01 9.0840184622335041e-01 0 0 0
3517 70 7 4.2359999999999998e-01 1.0307931990443784e+01 6.7843795335630359e+00 2.2901396838359358e+00 1 1 0
6779 1157 7 4.2359999999999998e-01 1.0298339572369462e+01 1.2589714045163397e+01 7.0441355900207880e-01 1 1 0
6780 1157 8 -8.4719999999999995e-01 9.5294842838066174e+00 1.3156970374498641e+01 4.0931727185921291e-01 1 1 0
6139 944 7 4.2359999999999998e-01 1.3093119764815361e+01 8.5777090442680635e+00 8.9289154716712957e+00 1 0 -1
3577 90 7 4.2359999999999998e-01 7.9580082250609383e+00 8.7751381709778915e+00 1.6947046345547714e+00 0 0 0
6140 944 7 4.2359999999999998e-01 1.2681400490682272e+01 1.0061314074556853e+01 8.3848283242130552e+00 1 0 -1
6141 944 8 -8.4719999999999995e-01 1.2328554261817107e+01 9.1833323706836119e+00 8.7083217072749726e+00 1 0 -1
4399 364 7 4.2359999999999998e-01 8.0347773410817851e+00 7.4635480138684578e+00 8.2807672345576684e+00 0 1 -1
7006 1233 7 4.2359999999999998e-01 7.6681946771137239e+00 1.3707120684156479e+01 9.1847360689892739e+00 0 0 -1
3578 90 7 4.2359999999999998e-01 9.5467846046243174e+00 8.7785227765665557e+00 1.3173392151466390e+00 0 0 0
3579 90 8 -8.4719999999999995e-01 8.7830708041371999e+00 8.2138003142656473e+00 1.6301168584520438e+00 0 0 0
5642 778 7 4.2359999999999998e-01 1.0912568858254650e+01 1.0673347367283730e+01 1.5221887734992883e+00 1 1 0
5643 778 8 -8.4719999999999995e-01 1.0527035989593221e+01 9.9263027120487397e+00 9.8062695602991601e-01 1 1 0
7258 1317 7 4.2359999999999998e-01 1.1266370114207682e+01 1.1704074320970827e+01 8.5244764499657730e+00 0 0 -1
7260 1317 8 -8.4719999999999995e-01 1.0299947747822921e+01 1.1521792090884722e+01 8.3433660381151835e+00 0 0 -1
222 1 1 0.0000000000000000e+00 7.0001978864221304e+00 8.4865259610753956e+00 4.9924083445427705e+00 0 0 0
223 1 1 0.0000000000000000e+00 8.4000167409171187e+00 8.4873490567550380e+00 4.9789493149222377e+00 0 0 0
224 1 1 0.0000000000000000e+00 9.0993596687850022e+00 7.2745370099818425e+00 4.9760500023385905e+00 0 0 0
225 1 1 0.0000000000000000e+00 1.0499087992874335e+01 7.2743501751039217e+00 4.9873450655033924e+00 0 0 0
226 1 1 0.0000000000000000e+00 1.1199211460567765e+01 8.4866577382412398e+00 5.0001834313167359e+00 0 0 0
227 1 1 0.0000000000000000e+00 1.2598618735789080e+01 8.4861888622648376e+00 5.0057348088300477e+00 0 0 0
228 1 4 1.4999999999999999e-01 1.3293778434336611e+01 7.2716556514820638e+00 4.7721867743570554e+00 0 0 0
229 1 5 -5.8499999999999996e-01 1.3254951352023626e+01 7.2607206001449027e+00 3.4041477897808963e+00 0 0 0
230 1 6 4.3500000000000000e-01 1.2409718301100202e+01 6.9808867787507483e+00 3.0398073758569266e+00 0 0 0
294 1 1 0.0000000000000000e+00 7.0027386313985485e+00 1.0911566584606927e+01 4.9989105137330441e+00 0 0 0
295 1 4 1.4999999999999999e-01 8.4070156864409782e+00 1.0915088663714597e+01 5.2185834982749091e+00 0 0 0
296 1 5 -5.8499999999999996e-01 8.4622474132585399e+00 1.0934462989948715e+01 6.5839937366188348e+00 0 0 0
297 1 6 4.3500000000000000e-01 9.2967658276006340e+00 1.1299268760091863e+01 6.8928820811305993e+00 0 0 0
298 1 1 0.0000000000000000e+00 9.1012066888788574e+00 9.6995750407431487e+00 4.9898284405353701e+00 0 0 0
299 1 1 0.0000000000000000e+00 1.0500748955496288e+01 9.6993321533719374e+00 4.9966863836457120e+00 0 0 0
300 1 1 0.0000000000000000e+00 1.1201138923554220e+01 1.0911775983975859e+01 5.0087923361168212e+00 0 0 0
301 1 1 0.0000000000000000e+00 1.2600972252619927e+01 1.0911599044458892e+01 5.0259161700532271e+00 0 0 0
302 1 1 0.0000000000000000e+00 1.3300073318526490e+01 9.6985136968066001e+00 5.0232690397941440e+00 0 0 0
366 1 1 0.0000000000000000e+00 7.0005243757016133e+00 1.3336402197801329e+01 5.0032018640782692e+00 0 0 0
367 1 1 0.0000000000000000e+00 8.4009225380014829e+00 1.3337024830179269e+01 4.9929267025597248e+00 0 0 0
368 1 1 0.0000000000000000e+00 9.1029166788017140e+00 1.2126078170832926e+01 4.9827553259238835e+00 0 0 0
369 1 1 0.0000000000000000e+00 1.0502154891741219e+01 1.2124826322729124e+01 4.9785560518777592e+00 0 0 0
370 1 1 0.0000000000000000e+00 1.1201480894828661e+01 1.3337154808710892e+01 4.9828095374678627e+00 0 0 0
371 1 1 0.0000000000000000e+00 1.2601338781833588e+01 1.3336599065206482e+01 4.9980344741394989e+00 0 0 0
372 1 1 0.0000000000000000e+00 1.3301212017590831e+01 1.2124302610486344e+01 5.0179214159892283e+00 0 0 0
7259 1317 7 4.2359999999999998e-01 9.7367347419883252e+00 1.2038946160073118e+01 8.9878369688529638e+00 0 0 -1
4192 295 7 4.2359999999999998e-01 1.0601410327435051e+01 8.5308184029456271e+00 8.2579796688811857e+00 0 0 -1
4194 295 8 -8.4719999999999995e-01 9.6188819624412272e+00 8.3555745739062974e+00 8.3206503806995240e+00 0 0 -1
4193 295 7 4.2359999999999998e-01 9.1289234843457425e+00 9.2247089579791552e+00 8.3880752374488363e+00 0 0 -1
4396 363 7 4.2359999999999998e-01 1.2719090676645173e+01 1.1844735929974510e+01 1.3480975840235021e+00 1 0 0
4398 363 8 -8.4719999999999995e-01 1.1866364759238669e+01 1.2228837288837900e+01 1.7021102916473216e+00 1 0 0
4397 363 7 4.2359999999999998e-01 1.2023259651142938e+01 1.3170500847074784e+01 1.9998592725747271e+00 1 0 0
5641 778 7 4.2359999999999998e-01 1.1084785186071823e+01 9.7852379609526583e+00 1.6269248954642798e-01 1 1 0
6801 1164 8 -8.4719999999999995e-01 1.3830694265471417e+01 1.0001559589601369e+01 1.5263943854488506e+00 1 1 0
6800 1164 7 4.2359999999999998e-01 1.3602094439547017e+01 9.4177642568258513e+00 2.3054485097519604e+00 1 1 0
4101 264 8 -8.4719999999999995e-01 1.3090552340745296e+01 1.2172292957435880e+01 8.7845719053120845e+00 0 1 -1
4099 264 7 4.2359999999999998e-01 1.2967513211114218e+01 1.3107293856316714e+01 8.4519539506200854e+00 0 1 -1
5698 797 7 4.2359999999999998e-01 1.5278818160435270e+01 8.5102448696430226e+00 9.2005663825946460e+00 0 1 -1
6799 1164 7 4.2359999999999998e-01 1.3291113621609426e+01 9.7233630501855846e+00 7.3175005871719323e-01 1 1 0
4100 264 7 4.2359999999999998e-01 1.4050974546683189e+01 1.1909420163636772e+01 8.6924464670116137e+00 0 1 -1
5700 797 8 -8.4719999999999995e-01 1.4585106417262129e+01 8.0147809659158593e+00 9.7233283882360979e+00 0 1 -1
5699 797 7 4.2359999999999998e-01 1.5026693913851489e+01 7.4965419864751368e+00 4.5574230749073125e-01 0 1 0
5977 890 7 4.2359999999999998e-01 1.7748861212591851e+01 8.6193405836121979e+00 9.6542850980672519e+00 0 0 -1
6100 931 7 4.2359999999999998e-01 2.0614550592891359e+01 8.4532538765805256e+00 4.8051958437760006e-01 0 1 0
7407 1366 8 -8.4719999999999995e-01 1.8432387817948179e+01 1.0912967664460764e+01 7.7945259912656741e+00 1 1 -1
6308 1000 7 4.2359999999999998e-01 1.8823262819889493e+01 1.1074502274326491e+01 1.9096850529478138e+00 -1 0 0
6309 1000 8 -8.4719999999999995e-01 1.9467402204162287e+01 1.1829803673017718e+01 2.0305353261445851e+00 -1 0 0
7270 1321 7 4.2359999999999998e-01 1.5870566823976649e+01 1.1494391666043756e+01 9.8000042186062970e+00 1 1 -1
7272 1321 8 -8.4719999999999995e-01 1.5738866452139353e+01 1.1523690306607859e+01 8.8091476921499954e+00 1 1 -1