 running on   24 total cores
 distrk:  each k-point on   24 cores,    1 groups
 distr:  one band on    1 cores,   24 groups
 using from now: INCAR     
 vasp.5.4.4.18Apr17-6-g9f103f2a35 (build Apr 11 2019 18:12:45) complex          
  
 POSCAR found type information on POSCAR  C  Na
 POSCAR found :  2 types and      33 ions
 scaLAPACK will be used

 ----------------------------------------------------------------------------- 
|                                                                             |
|           W    W    AA    RRRRR   N    N  II  N    N   GGGG   !!!           |
|           W    W   A  A   R    R  NN   N  II  NN   N  G    G  !!!           |
|           W    W  A    A  R    R  N N  N  II  N N  N  G       !!!           |
|           W WW W  AAAAAA  RRRRR   N  N N  II  N  N N  G  GGG   !            |
|           WW  WW  A    A  R   R   N   NN  II  N   NN  G    G                |
|           W    W  A    A  R    R  N    N  II  N    N   GGGG   !!!           |
|                                                                             |
|      For optimal performance we recommend to set                            |
|        NCORE= 4 - approx SQRT( number of cores)                             |
|      NCORE specifies how many cores store one orbital (NPAR=cpu/NCORE).     |
|      This setting can  greatly improve the performance of VASP for DFT.     |
|      The default,   NCORE=1            might be grossly inefficient         |
|      on modern multi-core architectures or massively parallel machines.     |
|      Do your own testing !!!!                                               |
|      Unfortunately you need to use the default for GW and RPA calculations. |
|      (for HF NCORE is supported but not extensively tested yet)             |
|                                                                             |
 ----------------------------------------------------------------------------- 

 LDA part: xc-table for Pade appr. of Perdew
 found WAVECAR, reading the header
 POSCAR, INCAR and KPOINTS ok, starting setup
 FFT: planning ...
 reading WAVECAR
 the WAVECAR file was read successfully
 charge-density read from file: hBN                                     
 magnetization density read from file 1
 entering main loop
       N       E                     dE             d eps       ncg     rms          rms(c)
DAV:   1    -0.295816488528E+03   -0.29582E+03   -0.42959E-01 13608   0.668E-01    0.775E-01
DAV:   2    -0.294896751643E+03    0.91974E+00   -0.39451E-01 12720   0.949E-01    0.249E-01
DAV:   3    -0.295295737994E+03   -0.39899E+00   -0.12416E-01 13320   0.453E-01    0.319E-01
DAV:   4    -0.295594561998E+03   -0.29882E+00   -0.58699E-02 13296   0.325E-01    0.177E-01
DAV:   5    -0.295624603661E+03   -0.30042E-01   -0.93105E-03 14328   0.113E-01    0.878E-02
DAV:   6    -0.295674958238E+03   -0.50355E-01   -0.15039E-02 13992   0.140E-01    0.400E-02
DAV:   7    -0.295689135338E+03   -0.14177E-01   -0.17727E-03 13296   0.555E-02    0.620E-02
DAV:   8    -0.295703148240E+03   -0.14013E-01   -0.11836E-03 12960   0.436E-02    0.217E-02
DAV:   9    -0.295705969098E+03   -0.28209E-02   -0.15019E-04 12432   0.156E-02    0.935E-03
DAV:  10    -0.295707041954E+03   -0.10729E-02   -0.42090E-05 10968   0.873E-03    0.878E-03
DAV:  11    -0.295707806992E+03   -0.76504E-03   -0.50869E-05 11592   0.698E-03    0.495E-03
DAV:  12    -0.295708353099E+03   -0.54611E-03   -0.37035E-05 11208   0.581E-03    0.318E-03
DAV:  13    -0.295708685150E+03   -0.33205E-03   -0.25992E-05 11352   0.400E-03    0.375E-03
DAV:  14    -0.295708802803E+03   -0.11765E-03   -0.91826E-06 11448   0.296E-03    0.350E-03
DAV:  15    -0.295708753020E+03    0.49783E-04   -0.27841E-05 11832   0.501E-03
   1 F= -.29570875E+03 E0= -.29570037E+03  d E =-.295709E+03  mag=     0.3760
 curvature:   0.00 expect dE= 0.000E+00 dE for cont linesearch  0.000E+00
 trial: gam= 0.00000 g(F)=  0.163E-02 g(S)=  0.000E+00 ort = 0.000E+00 (trialstep = 0.100E+01)
 search vector abs. value=  0.163E-02
 ******************************
 ***ISIF             0  ****Zhiping
 ******************************
 ******************************
 ***ISIF             0  ****Zhiping
 ******************************
 ******************************
 ***ISIF             0  ****Zhiping
 ******************************
 ******************************
 ******************************
 ***ISIF             0  ****Zhiping
 ******************************
 ******************************
 ***ISIF             0  ****Zhiping
 ******************************
 ******************************
 ***ISIF             0  ****Zhiping
 ******************************
 ******************************
 ***ISIF             0  ****Zhiping
 ******************************
 ******************************
 ***ISIF             0  ****Zhiping
 ******************************
 ******************************
 ***ISIF             0  ****Zhiping
 ******************************
 ******************************
 ***ISIF             0  ****Zhiping
 ******************************
 ***ISIF             0  ****Zhiping
 ******************************
 ******************************
 ***ISIF             0  ****Zhiping
 ******************************
 ******************************
 ***ISIF             0  ****Zhiping
 ******************************
 ******************************
 ******************************
 ***ISIF             0  ****Zhiping
 ******************************
 ******************************
 ******************************
 ***ISIF             0  ****Zhiping
 ******************************
 ***ISIF             0  ****Zhiping
 ******************************
 ******************************
 ***ISIF             0  ****Zhiping
 ******************************
 ******************************
 ***ISIF             0  ****Zhiping
 ******************************
 ***ISIF             0  ****Zhiping
 ******************************
 ***ISIF             0  ****Zhiping
 ******************************
 ******************************
 ***ISIF             0  ****Zhiping
 ******************************
 ******************************
 ***ISIF             0  ****Zhiping
 ******************************
 ******************************
 ***ISIF             0  ****Zhiping
 ******************************
 ******************************
 bond charge predicted
       N       E                     dE             d eps       ncg     rms          rms(c)
DAV:   1    -0.295709116295E+03   -0.31349E-03   -0.21307E-01 12984   0.117E+00    0.736E-02
DAV:   2    -0.295706703085E+03    0.24132E-02   -0.59356E-03 13032   0.186E-01    0.536E-02
DAV:   3    -0.295708144990E+03   -0.14419E-02   -0.16734E-03 13176   0.711E-02    0.253E-02
DAV:   4    -0.295709275853E+03   -0.11309E-02   -0.23469E-04 11952   0.288E-02    0.956E-03
DAV:   5    -0.295709068252E+03    0.20760E-03   -0.89452E-05 11424   0.141E-02    0.431E-03
DAV:   6    -0.295709171758E+03   -0.10351E-03   -0.10075E-05 10848   0.614E-03    0.173E-03
DAV:   7    -0.295709255697E+03   -0.83939E-04   -0.16100E-05 10416   0.504E-03
 ******************************
 ******************************
 ******************************
 ******************************
 ******************************
 ***ISIF             0  ****Zhiping
 ******************************
 ******************************
 ***ISIF             0  ****Zhiping
 ******************************
 ******************************
 ******************************
 ***ISIF             0  ****Zhiping
 ******************************
 ******************************
 ******************************
 ***ISIF             0  ****Zhiping
 ******************************
 ******************************
 ***ISIF             0  ****Zhiping
 ******************************
 ***ISIF             0  ****Zhiping
 ******************************
 ******************************
 ***ISIF             0  ****Zhiping
 ***ISIF             0  ****Zhiping
 ******************************
 ******************************
 ******************************
 ******************************
 ***ISIF             0  ****Zhiping
 ***ISIF             0  ****Zhiping
 ***ISIF             0  ****Zhiping
 ******************************
 ***ISIF             0  ****Zhiping
 ******************************
 ******************************
 ******************************
 ******************************
 ***ISIF             0  ****Zhiping
 ******************************
 ******************************
 ***ISIF             0  ****Zhiping
 ******************************
 ******************************
 ***ISIF             0  ****Zhiping
 ******************************
 ******************************
 ***ISIF             0  ****Zhiping
 ******************************
 ******************************
 ******************************
 ******************************
 ***ISIF             0  ****Zhiping
 ******************************
 ***ISIF             0  ****Zhiping
 ******************************
 ***ISIF             0  ****Zhiping
 ******************************
 ******************************
 ***ISIF             0  ****Zhiping
 ******************************
 ******************************
 ***ISIF             0  ****Zhiping
 ******************************
 ***ISIF             0  ****Zhiping
 ******************************
 ***ISIF             0  ****Zhiping
 ******************************
   2 F= -.29570926E+03 E0= -.29570087E+03  d E =-.502677E-03  mag=     0.3787
 trial-energy change:   -0.000503  1 .order   -0.000457   -0.001628    0.000713
 step:   0.6953(harm=  0.6953)  dis= 0.00302  next Energy=  -295.709319 (dE=-0.566E-03)
 bond charge predicted
       N       E                     dE             d eps       ncg     rms          rms(c)
DAV:   1    -0.295709178134E+03   -0.63756E-05   -0.19799E-02 12960   0.356E-01    0.224E-02
DAV:   2    -0.295709103662E+03    0.74471E-04   -0.42127E-04 12168   0.525E-02
 ******************************
 ******************************
 ******************************
 ***ISIF             0  ****Zhiping
 ******************************
 ******************************
 ******************************
 ******************************
 ***ISIF             0  ****Zhiping
 ******************************
 ******************************
 ******************************
 ***ISIF             0  ****Zhiping
 ******************************
 ******************************
 ***ISIF             0  ****Zhiping
 ******************************
 ******************************
 ******************************
 ******************************
 ***ISIF             0  ****Zhiping
 ******************************
 ******************************
 ***ISIF             0  ****Zhiping
 ******************************
 ***ISIF             0  ****Zhiping
 ******************************
 ***ISIF             0  ****Zhiping
 ******************************
 ***ISIF             0  ****Zhiping
 ******************************
 ***ISIF             0  ****Zhiping
 ******************************
 ******************************
 ***ISIF             0  ****Zhiping
 ******************************
 ******************************
 ******************************
 ******************************
 ***ISIF             0  ****Zhiping
 ******************************
 ******************************
 ******************************
 ******************************
 ******************************
 ******************************
 ***ISIF             0  ****Zhiping
 ******************************
 ***ISIF             0  ****Zhiping
 ******************************
 ***ISIF             0  ****Zhiping
 ******************************
 ***ISIF             0  ****Zhiping
 ******************************
 ***ISIF             0  ****Zhiping
 ******************************
 ***ISIF             0  ****Zhiping
 ******************************
 ***ISIF             0  ****Zhiping
 ******************************
 ******************************
 ***ISIF             0  ****Zhiping
 ******************************
 ***ISIF             0  ****Zhiping
 ******************************
 ***ISIF             0  ****Zhiping
 ******************************
 ***ISIF             0  ****Zhiping
 ******************************
   3 F= -.29570910E+03 E0= -.29570072E+03  d E =-.350642E-03  mag=     0.3780
 curvature:  -0.35 expect dE=-0.565E-03 dE for cont linesearch -0.557E-06
 trial: gam= 0.96725 g(F)=  0.163E-02 g(S)=  0.000E+00 ort = 0.511E-04 (trialstep = 0.471E+00)
 search vector abs. value=  0.325E-02
 bond charge predicted
       N       E                     dE             d eps       ncg     rms          rms(c)
DAV:   1    -0.295709777656E+03   -0.59952E-03   -0.10979E-01 12696   0.687E-01    0.386E-02
DAV:   2    -0.295708248645E+03    0.15290E-02   -0.32145E-03 12936   0.108E-01    0.252E-02
DAV:   3    -0.295709280528E+03   -0.10319E-02   -0.98869E-04 13152   0.423E-02    0.131E-02
DAV:   4    -0.295709894348E+03   -0.61382E-03   -0.16663E-04 11352   0.193E-02    0.465E-03
DAV:   5    -0.295709935849E+03   -0.41501E-04   -0.12051E-05 10200   0.695E-03
 ******************************
 ******************************
 ***ISIF             0  ****Zhiping
 ******************************
 ******************************
 ******************************
 ******************************
 ***ISIF             0  ****Zhiping
 ******************************
 ******************************
 ******************************
   4 F= -.29570994E+03 E0= -.29570155E+03  d E =-.832187E-03  mag=     0.3805
 ******************************
 ******************************
 ***ISIF             0  ****Zhiping
 ******************************
 ******************************
 ***ISIF             0  ****Zhiping
 ******************************
 ***ISIF             0  ****Zhiping
 ******************************
 ***ISIF             0  ****Zhiping
 ******************************
 ******************************
 ***ISIF             0  ****Zhiping
 ******************************
 ******************************
 ***ISIF             0  ****Zhiping
 ******************************
 ***ISIF             0  ****Zhiping
 ******************************
 ***ISIF             0  ****Zhiping
 ******************************
 ******************************
 ***ISIF             0  ****Zhiping
 ******************************
 ***ISIF             0  ****Zhiping
 ******************************
 ***ISIF             0  ****Zhiping
 ******************************
 ******************************
 ***ISIF             0  ****Zhiping
 ******************************
 ******************************
 ***ISIF             0  ****Zhiping
 ******************************
 ******************************
 ******************************
 ******************************
 ***ISIF             0  ****Zhiping
 ******************************
 ***ISIF             0  ****Zhiping
 ******************************
 ***ISIF             0  ****Zhiping
 ******************************
 ******************************
 ***ISIF             0  ****Zhiping
 ******************************
 ******************************
 ******************************
 ***ISIF             0  ****Zhiping
 ******************************
 ******************************
 ***ISIF             0  ****Zhiping
 ******************************
 ***ISIF             0  ****Zhiping
 ******************************
 ******************************
 ***ISIF             0  ****Zhiping
 ******************************
 trial-energy change:   -0.000832  1 .order   -0.000579   -0.000789   -0.000369
 step:   0.8846(harm=  0.8846)  dis= 0.00792  next Energy=  -295.709845 (dE=-0.741E-03)
 bond charge predicted
       N       E                     dE             d eps       ncg     rms          rms(c)
DAV:   1    -0.295710071624E+03   -0.17728E-03   -0.85280E-02 12240   0.604E-01    0.348E-02
DAV:   2    -0.295708985987E+03    0.10856E-02   -0.23901E-03 12984   0.929E-02    0.233E-02
DAV:   3    -0.295709521237E+03   -0.53525E-03   -0.72949E-04 13032   0.369E-02    0.120E-02
DAV:   4    -0.295710088811E+03   -0.56757E-03   -0.13750E-04 11280   0.173E-02    0.406E-03
DAV:   5    -0.295710129628E+03   -0.40817E-04   -0.11249E-05 10032   0.639E-03
 ******************************
 ******************************
 ******************************
 ***ISIF             0  ****Zhiping
 ******************************
 ******************************
 ******************************
 ******************************
 ******************************
 ***ISIF             0  ****Zhiping
 ******************************
 ******************************
   5 F= -.29571013E+03 E0= -.29570175E+03  d E =-.102597E-02  mag=     0.3828
 ******************************
 ***ISIF             0  ****Zhiping
 ******************************
 ******************************
 ***ISIF             0  ****Zhiping
 ******************************
 ***ISIF             0  ****Zhiping
 ******************************
 ******************************
 ******************************
 ***ISIF             0  ****Zhiping
 ******************************
 ******************************
 ***ISIF             0  ****Zhiping
 ******************************
 ***ISIF             0  ****Zhiping
 ******************************
 ***ISIF             0  ****Zhiping
 ******************************
 ******************************
 ******************************
 ******************************
 ***ISIF             0  ****Zhiping
 ******************************
 ***ISIF             0  ****Zhiping
 ******************************
 ******************************
 ******************************
 ***ISIF             0  ****Zhiping
 ******************************
 ***ISIF             0  ****Zhiping
 ******************************
 ******************************
 ******************************
 ******************************
 ******************************
 ***ISIF             0  ****Zhiping
 ***ISIF             0  ****Zhiping
 ******************************
 ***ISIF             0  ****Zhiping
 ******************************
 ******************************
 ***ISIF             0  ****Zhiping
 ******************************
 ***ISIF             0  ****Zhiping
 ******************************
 ***ISIF             0  ****Zhiping
 ******************************
 ***ISIF             0  ****Zhiping
 ******************************
 curvature:  -0.86 expect dE=-0.189E-02 dE for cont linesearch -0.458E-05
 trial: gam= 1.20476 g(F)=  0.220E-02 g(S)=  0.000E+00 ort = 0.132E-03 (trialstep = 0.248E+00)
 search vector abs. value=  0.724E-02
 ******************************
 ***ISIF             0  ****Zhiping
 ******************************
 ***ISIF             0  ****Zhiping
 ******************************
 ***ISIF             0  ****Zhiping
 ******************************
 bond charge predicted
       N       E                     dE             d eps       ncg     rms          rms(c)
DAV:   1    -0.295710587862E+03   -0.49905E-03   -0.70057E-02 12120   0.528E-01    0.303E-02
DAV:   2    -0.295709607546E+03    0.98032E-03   -0.20772E-03 12768   0.842E-02    0.203E-02
DAV:   3    -0.295710086485E+03   -0.47894E-03   -0.64743E-04 12360   0.338E-02    0.107E-02
DAV:   4    -0.295710585086E+03   -0.49860E-03   -0.12794E-04 11040   0.156E-02    0.375E-03
DAV:   5    -0.295710634823E+03   -0.49737E-04   -0.67419E-06 10272   0.533E-03
 ******************************
 ******************************
 ******************************
 ***ISIF             0  ****Zhiping
 ******************************
 ******************************
 ******************************
 ******************************
 ******************************
 ***ISIF             0  ****Zhiping
 ******************************
 ******************************
   6 F= -.29571063E+03 E0= -.29570226E+03  d E =-.505194E-03  mag=     0.3849
 ******************************
 ***ISIF             0  ****Zhiping
 ******************************
 ******************************
 ***ISIF             0  ****Zhiping
 ******************************
 ***ISIF             0  ****Zhiping
 ******************************
 ***ISIF             0  ****Zhiping
 ******************************
 ******************************
 ******************************
 ***ISIF             0  ****Zhiping
 ******************************
 ******************************
 ***ISIF             0  ****Zhiping
 ******************************
 ***ISIF             0  ****Zhiping
 ******************************
 ******************************
 ******************************
 ******************************
 ***ISIF             0  ****Zhiping
 ******************************
 ***ISIF             0  ****Zhiping
 ******************************
 ******************************
 ******************************
 ******************************
 ***ISIF             0  ****Zhiping
 ******************************
 ******************************
 ******************************
 ******************************
 ***ISIF             0  ****Zhiping
 ******************************
 ***ISIF             0  ****Zhiping
 ******************************
 ***ISIF             0  ****Zhiping
 ******************************
 ***ISIF             0  ****Zhiping
 ******************************
 ***ISIF             0  ****Zhiping
 ******************************
 ***ISIF             0  ****Zhiping
 ******************************
 ***ISIF             0  ****Zhiping
 ******************************
 ***ISIF             0  ****Zhiping
 ******************************
 trial-energy change:   -0.000505  1 .order   -0.000493   -0.000587   -0.000398
 step:   0.7727(harm=  0.7727)  dis= 0.01076  next Energy=  -295.711043 (dE=-0.913E-03)
 ******************************
 ***ISIF             0  ****Zhiping
 ******************************
 ***ISIF             0  ****Zhiping
 ******************************
 ***ISIF             0  ****Zhiping
 ******************************
 bond charge predicted
       N       E                     dE             d eps       ncg     rms          rms(c)
DAV:   1    -0.295710706465E+03   -0.12138E-03   -0.31185E-01 12168   0.111E+00    0.640E-02
DAV:   2    -0.295706675769E+03    0.40307E-02   -0.75130E-03 12648   0.170E-01    0.430E-02
DAV:   3    -0.295709783204E+03   -0.31074E-02   -0.23913E-03 12912   0.658E-02    0.229E-02
DAV:   4    -0.295710939080E+03   -0.11559E-02   -0.26912E-04 11664   0.276E-02    0.811E-03
DAV:   5    -0.295710992066E+03   -0.52986E-04   -0.30416E-05 10896   0.110E-02
 ******************************
 ******************************
 ******************************
 ***ISIF             0  ****Zhiping
 ******************************
 ******************************
 ******************************
 ******************************
 ******************************
 ***ISIF             0  ****Zhiping
 ******************************
 ******************************
   7 F= -.29571099E+03 E0= -.29570263E+03  d E =-.862437E-03  mag=     0.3894
 ******************************
 ***ISIF             0  ****Zhiping
 ******************************
 ***ISIF             0  ****Zhiping
 ******************************
 ***ISIF             0  ****Zhiping
 ******************************
 ******************************
 ******************************
 ***ISIF             0  ****Zhiping
 ******************************
 ***ISIF             0  ****Zhiping
 ******************************
 ******************************
 ***ISIF             0  ****Zhiping
 ******************************
 ***ISIF             0  ****Zhiping
 ******************************
 ******************************
 ***ISIF             0  ****Zhiping
 ******************************
 ******************************
 ******************************
 ******************************
 ***ISIF             0  ****Zhiping
 ******************************
 ***ISIF             0  ****Zhiping
 ******************************
 ******************************
 ******************************
 ******************************
 ******************************
 ***ISIF             0  ****Zhiping
 ***ISIF             0  ****Zhiping
 ******************************
 ***ISIF             0  ****Zhiping
 ******************************
 ***ISIF             0  ****Zhiping
 ******************************
 ******************************
 ***ISIF             0  ****Zhiping
 ***ISIF             0  ****Zhiping
 ******************************
 ******************************
 ******************************
 ***ISIF             0  ****Zhiping
 ******************************
 ******************************
 ***ISIF             0  ****Zhiping
 ******************************
 curvature:  -1.18 expect dE=-0.182E-02 dE for cont linesearch -0.401E-06
 trial: gam= 0.91203 g(F)=  0.153E-02 g(S)=  0.000E+00 ort = 0.495E-04 (trialstep = 0.334E+00)
 search vector abs. value=  0.764E-02
 ******************************
 ***ISIF             0  ****Zhiping
 ******************************
 ***ISIF             0  ****Zhiping
 ******************************
 ***ISIF             0  ****Zhiping
 ******************************
 bond charge predicted
       N       E                     dE             d eps       ncg     rms          rms(c)
DAV:   1    -0.295711325312E+03   -0.38623E-03   -0.13795E-01 12096   0.717E-01    0.416E-02
DAV:   2    -0.295709683168E+03    0.16421E-02   -0.35830E-03 12600   0.113E-01    0.277E-02
DAV:   3    -0.295710641599E+03   -0.95843E-03   -0.10942E-03 12816   0.439E-02    0.144E-02
DAV:   4    -0.295711375630E+03   -0.73403E-03   -0.16929E-04 11064   0.199E-02    0.512E-03
DAV:   5    -0.295711447031E+03   -0.71401E-04   -0.10245E-05 10224   0.683E-03
 ******************************
 ******************************
 ******************************
 ***ISIF             0  ****Zhiping
 ******************************
 ******************************
 ******************************
 ******************************
 ***ISIF             0  ****Zhiping
 ******************************
 ******************************
 ******************************
 ***ISIF             0  ****Zhiping
 ******************************
 ******************************
   8 F= -.29571145E+03 E0= -.29570310E+03  d E =-.454965E-03  mag=     0.3923
 ***ISIF             0  ****Zhiping
 ******************************
 ******************************
 ***ISIF             0  ****Zhiping
 ******************************
 ***ISIF             0  ****Zhiping
 ******************************
 ******************************
 ******************************
 ******************************
 ***ISIF             0  ****Zhiping
 ******************************
 ***ISIF             0  ****Zhiping
 ***ISIF             0  ****Zhiping
 ******************************
 ******************************
 ******************************
 ******************************
 ***ISIF             0  ****Zhiping
 ***ISIF             0  ****Zhiping
 ******************************
 ******************************
 ***ISIF             0  ****Zhiping
 ******************************
 ******************************
 ******************************
 ***ISIF             0  ****Zhiping
 ******************************
 ******************************
 ***ISIF             0  ****Zhiping
 ******************************
 ***ISIF             0  ****Zhiping
 ******************************
 ******************************
 trial-energy change:   -0.000455  1 .order   -0.000372   -0.000528   -0.000216
 step:   0.5665(harm=  0.5665)  dis= 0.00839  next Energy=  -295.711440 (dE=-0.448E-03)
 ***ISIF             0  ****Zhiping
 ******************************
 ******************************
 ***ISIF             0  ****Zhiping
 ******************************
 ***ISIF             0  ****Zhiping
 ******************************
 ******************************
 ***ISIF             0  ****Zhiping
 ******************************
 ******************************
 ******************************
 ***ISIF             0  ****Zhiping
 ******************************
 ***ISIF             0  ****Zhiping
 ******************************
 ***ISIF             0  ****Zhiping
 ******************************
 reached required accuracy - stopping structural energy minimisation
 ***ISIF             0  ****Zhiping
 ******************************
 writing wavefunctions
Job  /jobmgr/lsf8.0/8.0/linux2.6-glibc2.3-x86_64/bin/intelmpi_wrapper -np 24 /home/xuzp/bin/vasp.5.4.4.std

TID   HOST_NAME   COMMAND_LINE            STATUS            TERMINATION_TIME
===== ========== ================  =======================  ===================
00000 c30b12     /home/xuzp/bin/v  Done                     08/02/2019 23:29:45
00001 c30b12     /home/xuzp/bin/v  Done                     08/02/2019 23:29:45
00002 c30b12     /home/xuzp/bin/v  Done                     08/02/2019 23:29:45
00003 c30b12     /home/xuzp/bin/v  Done                     08/02/2019 23:29:45
00004 c30b12     /home/xuzp/bin/v  Done                     08/02/2019 23:29:45
00005 c30b12     /home/xuzp/bin/v  Done                     08/02/2019 23:29:45
00006 c30b12     /home/xuzp/bin/v  Done                     08/02/2019 23:29:45
00007 c30b12     /home/xuzp/bin/v  Done                     08/02/2019 23:29:45
00008 c30b12     /home/xuzp/bin/v  Done                     08/02/2019 23:29:45
00009 c30b12     /home/xuzp/bin/v  Done                     08/02/2019 23:29:45
00010 c30b12     /home/xuzp/bin/v  Done                     08/02/2019 23:29:45
00011 c30b12     /home/xuzp/bin/v  Done                     08/02/2019 23:29:45
00012 c02b19     /home/xuzp/bin/v  Done                     08/02/2019 23:28:34
00013 c02b19     /home/xuzp/bin/v  Done                     08/02/2019 23:28:34
00014 c02b19     /home/xuzp/bin/v  Done                     08/02/2019 23:28:34
00015 c02b19     /home/xuzp/bin/v  Done                     08/02/2019 23:28:34
00016 c02b19     /home/xuzp/bin/v  Done                     08/02/2019 23:28:34
00017 c02b19     /home/xuzp/bin/v  Done                     08/02/2019 23:28:34
00018 c02b19     /home/xuzp/bin/v  Done                     08/02/2019 23:28:34
00019 c02b19     /home/xuzp/bin/v  Done                     08/02/2019 23:28:34
00020 c02b19     /home/xuzp/bin/v  Done                     08/02/2019 23:28:34
00021 c02b19     /home/xuzp/bin/v  Done                     08/02/2019 23:28:34
00022 c02b19     /home/xuzp/bin/v  Done                     08/02/2019 23:28:34
00023 c02b19     /home/xuzp/bin/v  Done                     08/02/2019 23:28:34
