 vasp.5.4.4.18Apr17-6-g9f103f2a35 (build Aug 15 2019 11:13:16) gamma-only       
  
 executed on             LinuxIFC date 2019.10.12  14:25:57
 running on   28 total cores
 distrk:  each k-point on   28 cores,    1 groups
 distr:  one band on NCORES_PER_BAND=   1 cores,   28 groups


--------------------------------------------------------------------------------------------------------


 INCAR:
 POTCAR:    PAW_PBE Na_pv 19Sep2006               
 POTCAR:   PAW_PBE O 08Apr2002                    
 POTCAR:   PAW_PBE H 15Jun2001                    

 ----------------------------------------------------------------------------- 
|                                                                             |
|           W    W    AA    RRRRR   N    N  II  N    N   GGGG   !!!           |
|           W    W   A  A   R    R  NN   N  II  NN   N  G    G  !!!           |
|           W    W  A    A  R    R  N N  N  II  N N  N  G       !!!           |
|           W WW W  AAAAAA  RRRRR   N  N N  II  N  N N  G  GGG   !            |
|           WW  WW  A    A  R   R   N   NN  II  N   NN  G    G                |
|           W    W  A    A  R    R  N    N  II  N    N   GGGG   !!!           |
|                                                                             |
|      For optimal performance we recommend to set                            |
|        NCORE= 4 - approx SQRT( number of cores)                             |
|      NCORE specifies how many cores store one orbital (NPAR=cpu/NCORE).     |
|      This setting can  greatly improve the performance of VASP for DFT.     |
|      The default,   NCORE=1            might be grossly inefficient         |
|      on modern multi-core architectures or massively parallel machines.     |
|      Do your own testing !!!!                                               |
|      Unfortunately you need to use the default for GW and RPA calculations. |
|      (for HF NCORE is supported but not extensively tested yet)             |
|                                                                             |
 ----------------------------------------------------------------------------- 

 POTCAR:    PAW_PBE Na_pv 19Sep2006               
   VRHFIN =Na: p6s1                                                             
   LEXCH  = PE                                                                  
   EATOM  =   766.0439 eV,   56.3026 Ry                                         
                                                                                
   TITEL  = PAW_PBE Na_pv 19Sep2006                                             
   LULTRA =        F    use ultrasoft PP ?                                      
   IUNSCR =        1    unscreen: 0-lin 1-nonlin 2-no                           
   RPACOR =    1.800    partial core radius                                     
   POMASS =   22.990; ZVAL   =    7.000    mass and valenz                      
   RCORE  =    2.200    outmost cutoff radius                                   
   RWIGS  =    2.200; RWIGS  =    1.164    wigner-seitz radius (au A)           
   ENMAX  =  259.561; ENMIN  =  194.671 eV                                      
   ICORE  =        2    local potential                                         
   LCOR   =        T    correct aug charges                                     
   LPAW   =        T    paw PP                                                  
   EAUG   =  368.056                                                            
   DEXC   =     .000                                                            
   RMAX   =    2.862    core radius for proj-oper                               
   RAUG   =    1.300    factor for augmentation sphere                          
   RDEP   =    2.259    radius for radial grids                                 
   QCUT   =   -4.368; QGAM   =    8.735    optimization parameters              
                                                                                
   Description                                                                  
     l     E      TYP  RCUT    TYP  RCUT                                        
     1   .000     23  2.000                                                     
     1   .500     23  2.000                                                     
     0   .000     23  2.200                                                     
     0  2.500     23  2.200                                                     
     2  -.100     23  2.200                                                     
  local pseudopotential read in
  partial core-charges read in
  atomic valenz-charges read in
  non local Contribution for L=           1  read in
    real space projection operators read in
  non local Contribution for L=           1  read in
    real space projection operators read in
  non local Contribution for L=           0  read in
    real space projection operators read in
  non local Contribution for L=           0  read in
    real space projection operators read in
    PAW grid and wavefunctions read in
 
   number of l-projection  operators is LMAX  =           4
   number of lm-projection operators is LMMAX =           8
 
 POTCAR:   PAW_PBE O 08Apr2002                    
   VRHFIN =O: s2p4                                                              
   LEXCH  = PE                                                                  
   EATOM  =   432.3788 eV,   31.7789 Ry                                         
                                                                                
   TITEL  = PAW_PBE O 08Apr2002                                                 
   LULTRA =        F    use ultrasoft PP ?                                      
   IUNSCR =        0    unscreen: 0-lin 1-nonlin 2-no                           
   RPACOR =     .000    partial core radius                                     
   POMASS =   16.000; ZVAL   =    6.000    mass and valenz                      
   RCORE  =    1.520    outmost cutoff radius                                   
   RWIGS  =    1.550; RWIGS  =     .820    wigner-seitz radius (au A)           
   ENMAX  =  400.000; ENMIN  =  300.000 eV                                      
   ICORE  =        2    local potential                                         
   LCOR   =        T    correct aug charges                                     
   LPAW   =        T    paw PP                                                  
   EAUG   =  605.392                                                            
   DEXC   =     .000                                                            
   RMAX   =    2.264    core radius for proj-oper                               
   RAUG   =    1.300    factor for augmentation sphere                          
   RDEP   =    1.550    radius for radial grids                                 
   QCUT   =   -5.520; QGAM   =   11.041    optimization parameters              
                                                                                
   Description                                                                  
     l     E      TYP  RCUT    TYP  RCUT                                        
     0   .000     23  1.200                                                     
     0  -.700     23  1.200                                                     
     1   .000     23  1.520                                                     
     1   .600     23  1.520                                                     
     2   .000      7  1.500                                                     
  local pseudopotential read in
  atomic valenz-charges read in
  non local Contribution for L=           0  read in
    real space projection operators read in
  non local Contribution for L=           0  read in
    real space projection operators read in
  non local Contribution for L=           1  read in
    real space projection operators read in
  non local Contribution for L=           1  read in
    real space projection operators read in
    PAW grid and wavefunctions read in
 
   number of l-projection  operators is LMAX  =           4
   number of lm-projection operators is LMMAX =           8
 
 POTCAR:   PAW_PBE H 15Jun2001                    
   VRHFIN =H: ultrasoft test                                                    
   LEXCH  = PE                                                                  
   EATOM  =    12.4884 eV,     .9179 Ry                                         
                                                                                
   TITEL  = PAW_PBE H 15Jun2001                                                 
   LULTRA =        F    use ultrasoft PP ?                                      
   IUNSCR =        0    unscreen: 0-lin 1-nonlin 2-no                           
   RPACOR =     .000    partial core radius                                     
   POMASS =    1.000; ZVAL   =    1.000    mass and valenz                      
   RCORE  =    1.100    outmost cutoff radius                                   
   RWIGS  =     .700; RWIGS  =     .370    wigner-seitz radius (au A)           
   ENMAX  =  250.000; ENMIN  =  200.000 eV                                      
   RCLOC  =     .701    cutoff for local pot                                    
   LCOR   =        T    correct aug charges                                     
   LPAW   =        T    paw PP                                                  
   EAUG   =  400.000                                                            
   RMAX   =    2.174    core radius for proj-oper                               
   RAUG   =    1.200    factor for augmentation sphere                          
   RDEP   =    1.112    radius for radial grids                                 
   QCUT   =   -5.749; QGAM   =   11.498    optimization parameters              
                                                                                
   Description                                                                  
     l     E      TYP  RCUT    TYP  RCUT                                        
     0   .000     23  1.100                                                     
     0   .500     23  1.100                                                     
     1  -.300     23  1.100                                                     
  local pseudopotential read in
  atomic valenz-charges read in
  non local Contribution for L=           0  read in
    real space projection operators read in
  non local Contribution for L=           0  read in
    real space projection operators read in
  non local Contribution for L=           1  read in
    real space projection operators read in
    PAW grid and wavefunctions read in
 
   number of l-projection  operators is LMAX  =           3
   number of lm-projection operators is LMMAX =           5
 

 ----------------------------------------------------------------------------- 
|                                                                             |
|  ADVICE TO THIS USER RUNNING 'VASP/VAMP'   (HEAR YOUR MASTER'S VOICE ...):  |
|                                                                             |
|      You have a (more or less) 'small supercell' and for smaller cells      |
|      it is recommended  to use the reciprocal-space projection scheme!      |
|      The real space optimization is not  efficient for small cells and it   |
|      is also less accurate ...                                              |
|      Therefore set LREAL=.FALSE. in the  INCAR file                         |
|                                                                             |
 ----------------------------------------------------------------------------- 

 Optimization of the real space projectors (new method)

 maximal supplied QI-value         = 17.01
 optimisation between [QCUT,QGAM] = [ 11.40, 28.57] = [ 36.36,228.61] Ry 
 Optimized for a Real-space Cutoff    1.25 Angstroem

   l    n(q)    QCUT    max X(q) W(low)/X(q) W(high)/X(q)  e(spline) 
   1     10    11.395     4.977    0.23E-05    0.17E-05    0.20E-07
   1     10    11.395     7.312    0.34E-03    0.16E-03    0.87E-06
   0     11    11.395    36.258    0.15E-04    0.97E-06    0.30E-07
   0     11    11.395    45.649    0.12E-04    0.89E-05    0.80E-07
 Optimization of the real space projectors (new method)

 maximal supplied QI-value         = 24.76
 optimisation between [QCUT,QGAM] = [ 11.39, 28.47] = [ 36.31,226.95] Ry 
 Optimized for a Real-space Cutoff    0.93 Angstroem

   l    n(q)    QCUT    max X(q) W(low)/X(q) W(high)/X(q)  e(spline) 
   0      8    11.387     4.192    0.42E-04    0.17E-04    0.17E-07
   0      8    11.387     8.473    0.27E-03    0.17E-03    0.11E-06
   1      7    11.387     2.474    0.76E-04    0.10E-03    0.15E-07
   1      7    11.387     3.912    0.34E-03    0.52E-03    0.97E-07
 Optimization of the real space projectors (new method)

 maximal supplied QI-value         = 34.20
 optimisation between [QCUT,QGAM] = [ 11.29, 28.39] = [ 35.68,225.69] Ry 
 Optimized for a Real-space Cutoff    0.83 Angstroem

   l    n(q)    QCUT    max X(q) W(low)/X(q) W(high)/X(q)  e(spline) 
   0      7    11.287     4.436    0.56E-04    0.25E-04    0.12E-07
   0      7    11.287    16.131    0.35E-03    0.26E-04    0.88E-07
   1      6    11.287     4.654    0.14E-03    0.33E-03    0.29E-07
  PAW_PBE Na_pv 19Sep2006               :
 energy of atom  1       EATOM= -766.0439
 kinetic energy error for atom=    0.0021 (will be added to EATOM!!)
 PAW_PBE O 08Apr2002                    :
 energy of atom  2       EATOM= -432.3788
 kinetic energy error for atom=    0.0224 (will be added to EATOM!!)
 PAW_PBE H 15Jun2001                    :
 energy of atom  3       EATOM=  -12.4884
 kinetic energy error for atom=    0.0020 (will be added to EATOM!!)
 
 
 POSCAR: graphene+Na                             
  positions in direct lattice
  velocities in cartesian coordinates
  No initial velocities read in
 exchange correlation table for  LEXCH =        8
   RHO(1)=    0.500       N(1)  =     2000
   RHO(2)=  100.500       N(2)  =     4000
 


--------------------------------------------------------------------------------------------------------


 ion  position               nearest neighbor table
   1  0.500  0.500  0.761-   2 2.24
   2  0.500  0.500  0.649-   4 0.98   3 0.98   1 2.24
   3  0.423  0.500  0.618-   2 0.98
   4  0.577  0.500  0.619-   2 0.98
 
  LATTYP: Found a hexagonal cell.
 ALAT       =     9.8742351532
 C/A-ratio  =     2.0254733344
  
  Lattice vectors:
  
 A1 = (   9.8742351532,   0.0000000000,   0.0000000000)
 A2 = (  -4.9371175766,   8.5513384856,   0.0000000000)
 A3 = (   0.0000000000,   0.0000000000,  20.0000000000)


Analysis of symmetry for initial positions (statically):
=====================================================================
 Subroutine PRICEL returns:
 Original cell was already a primitive cell.
 

 Routine SETGRP: Setting up the symmetry group for a 
 hexagonal supercell.


 Subroutine GETGRP returns: Found  1 space group operations
 (whereof  1 operations were pure point group operations)
 out of a pool of 24 trial point group operations.


The static configuration has the point symmetry C_1 .


Analysis of symmetry for dynamics (positions and initial velocities):
=====================================================================
 Subroutine PRICEL returns:
 Original cell was already a primitive cell.
 

 Routine SETGRP: Setting up the symmetry group for a 
 hexagonal supercell.


 Subroutine GETGRP returns: Found  1 space group operations
 (whereof  1 operations were pure point group operations)
 out of a pool of 24 trial point group operations.


The dynamic configuration has the point symmetry C_1 .


Analysis of constrained symmetry for selective dynamics:
=====================================================================
 Subroutine PRICEL returns:
 Original cell was already a primitive cell.
 

 Routine SETGRP: Setting up the symmetry group for a 
 hexagonal supercell.


 Subroutine GETGRP returns: Found  1 space group operations
 (whereof  1 operations were pure point group operations)
 out of a pool of 24 trial point group operations.


The constrained configuration has the point symmetry C_1 .


Analysis of structural, dynamic, and magnetic symmetry:
=====================================================================
 Subroutine PRICEL returns:
 Original cell was already a primitive cell.
 

 Routine SETGRP: Setting up the symmetry group for a 
 hexagonal supercell.


 Subroutine GETGRP returns: Found  1 space group operations
 (whereof  1 operations were pure point group operations)
 out of a pool of 24 trial point group operations.


The magnetic configuration has the point symmetry C_1 .


 Subroutine INISYM returns: Found  1 space group operations
 (whereof  1 operations are pure point group operations),
 and found     1 'primitive' translations

 
 
 KPOINTS: Automatic mesh                          

Automatic generation of k-mesh.
Space group operators:
 irot       det(A)        alpha          n_x          n_y          n_z        tau_x        tau_y        tau_z
    1     1.000000     0.000000     1.000000     0.000000     0.000000     0.000000     0.000000     0.000000
 
 Subroutine IBZKPT returns following result:
 ===========================================
 
 Found      1 irreducible k-points:
 
 Following reciprocal coordinates:
            Coordinates               Weight
  0.000000  0.000000  0.000000      1.000000
 
 Following cartesian coordinates:
            Coordinates               Weight
  0.000000  0.000000  0.000000      1.000000
 


--------------------------------------------------------------------------------------------------------




 Dimension of arrays:
   k-points           NKPTS =      1   k-points in BZ     NKDIM =      1   number of bands    NBANDS=     28
   number of dos      NEDOS =    301   number of ions     NIONS =      4
   non local maximal  LDIM  =      4   non local SUM 2l+1 LMDIM =      8
   total plane-waves  NPLWV = ******
   max r-space proj   IRMAX =  10292   max aug-charges    IRDMAX=   5688
   dimension x,y,z NGX =   112 NGY =  112 NGZ =  168
   dimension x,y,z NGXF=   112 NGYF=  112 NGZF=  216
   support grid    NGXF=   112 NGYF=  112 NGZF=  216
   ions per type =               1   1   2
   NGX,Y,Z   is equivalent  to a cutoff of  18.86, 18.86, 13.96 a.u.
   NGXF,Y,Z  is equivalent  to a cutoff of  18.86, 18.86, 17.95 a.u.

 Based on PREC, I would recommend the following setting:
   dimension x,y,z NGX =    72 NGY =   72 NGZ =  150

 SYSTEM =  graphene_metal                          
 POSCAR =  graphene+Na                             

 Startparameter for this run:
   NWRITE =      2    write-flag & timer
   PREC   = high      normal or accurate (medium, high low for compatibility)
   ISTART =      0    job   : 0-new  1-cont  2-samecut
   ICHARG =      1    charge: 1-file 2-atom 10-const
   ISPIN  =      2    spin polarized calculation?
   LNONCOLLINEAR =      F non collinear calculations
   LSORBIT =      F    spin-orbit coupling
   INIWAV =      1    electr: 0-lowe 1-rand  2-diag
   LASPH  =      F    aspherical Exc in radial PAW
   METAGGA=      F    non-selfconsistent MetaGGA calc.

 Electronic Relaxation 1
   ENCUT  =  500.0 eV  36.75 Ry    6.06 a.u.  18.00 18.00 36.46*2*pi/ulx,y,z
   ENINI  =  500.0     initial cutoff
   ENAUG  =  605.4 eV  augmentation charge cutoff
   NELM   =    200;   NELMIN=  2; NELMDL= -5     # of ELM steps 
   EDIFF  = 0.1E-05   stopping-criterion for ELM
   LREAL  =      T    real-space projection
   NLSPLINE    = F    spline interpolate recip. space projectors
   LCOMPAT=      F    compatible to vasp.4.4
   GGA_COMPAT  = T    GGA compatible to vasp.4.4-vasp.4.6
   LMAXPAW     = -100 max onsite density
   LMAXMIX     =    2 max onsite mixed and CHGCAR
   VOSKOWN=      0    Vosko Wilk Nusair interpolation
   ROPT   =   -0.00040  -0.00040  -0.00040
 Ionic relaxation
   EDIFFG = 0.1E-04   stopping-criterion for IOM
   NSW    =      0    number of steps for IOM
   NBLOCK =      1;   KBLOCK =      1    inner block; outer block 
   IBRION =     -1    ionic relax: 0-MD 1-quasi-New 2-CG
   NFREE  =      0    steps in history (QN), initial steepest desc. (CG)
   ISIF   =      2    stress and relaxation
   IWAVPR =     10    prediction:  0-non 1-charg 2-wave 3-comb
   ISYM   =      2    0-nonsym 1-usesym 2-fastsym
   LCORR  =      T    Harris-Foulkes like correction to forces

   POTIM  = 0.5000    time-step for ionic-motion
   TEIN   =    0.0    initial temperature
   TEBEG  =    0.0;   TEEND  =   0.0 temperature during run
   SMASS  =  -3.00    Nose mass-parameter (am)
   estimated Nose-frequenzy (Omega)   =  0.10E-29 period in steps =****** mass=  -0.223E-26a.u.
   SCALEE = 1.0000    scale energy and forces
   NPACO  =    256;   APACO  = 16.0  distance and # of slots for P.C.
   PSTRESS=    0.0 pullay stress

  Mass of Ions in am
   POMASS =  22.99 16.00  1.00
  Ionic Valenz
   ZVAL   =   7.00  6.00  1.00
  Atomic Wigner-Seitz radii
   RWIGS  =  -1.00 -1.00 -1.00
  virtual crystal weights 
   VCA    =   1.00  1.00  1.00
   NELECT =      15.0000    total number of electrons
   NUPDOWN=      -1.0000    fix difference up-down

 DOS related values:
   EMIN   =  10.00;   EMAX   =-10.00  energy-range for DOS
   EFERMI =   0.00
   ISMEAR =     0;   SIGMA  =   0.05  broadening in eV -4-tet -1-fermi 0-gaus

 Electronic relaxation 2 (details)
   IALGO  =     38    algorithm
   LDIAG  =      T    sub-space diagonalisation (order eigenvalues)
   LSUBROT=      F    optimize rotation matrix (better conditioning)
   TURBO    =      0    0=normal 1=particle mesh
   IRESTART =      0    0=no restart 2=restart with 2 vectors
   NREBOOT  =      0    no. of reboots
   NMIN     =      0    reboot dimension
   EREF     =   0.00    reference energy to select bands
   IMIX   =      4    mixing-type and parameters
     AMIX     =   0.40;   BMIX     =  1.00
     AMIX_MAG =   1.60;   BMIX_MAG =  1.00
     AMIN     =   0.10
     WC   =   100.;   INIMIX=   1;  MIXPRE=   1;  MAXMIX= -45

 Intra band minimization:
   WEIMIN = 0.0000     energy-eigenvalue tresh-hold
   EBREAK =  0.89E-08  absolut break condition
   DEPER  =   0.30     relativ break condition  

   TIME   =   0.40     timestep for ELM

  volume/ion in A,a.u.               =     422.19      2849.08
  Fermi-wavevector in a.u.,A,eV,Ry     =   0.339039  0.640690  1.563953  0.114947
  Thomas-Fermi vector in A             =   1.241591
 
 Write flags
   LWAVE        =      T    write WAVECAR
   LDOWNSAMPLE  =      F    k-point downsampling of WAVECAR
   LCHARG       =      T    write CHGCAR
   LVTOT        =      F    write LOCPOT, total local potential
   LVHAR        =      F    write LOCPOT, Hartree potential only
   LELF         =      F    write electronic localiz. function (ELF)
   LORBIT       =      0    0 simple, 1 ext, 2 COOP (PROOUT), +10 PAW based schemes


 Dipole corrections
   LMONO  =      F    monopole corrections only (constant potential shift)
   LDIPOL =      F    correct potential (dipole corrections)
   IDIPOL =      0    1-x, 2-y, 3-z, 4-all directions 
   EPSILON=  1.0000000 bulk dielectric constant

 Exchange correlation treatment:
   GGA     =    --    GGA type
   LEXCH   =     8    internal setting for exchange type
   VOSKOWN=      0    Vosko Wilk Nusair interpolation
   LHFCALC =     F    Hartree Fock is set to
   LHFONE  =     F    Hartree Fock one center treatment
   AEXX    =    0.0000 exact exchange contribution

 Linear response parameters
   LEPSILON=     F    determine dielectric tensor
   LRPA    =     F    only Hartree local field effects (RPA)
   LNABLA  =     F    use nabla operator in PAW spheres
   LVEL    =     F    velocity operator in full k-point grid
   LINTERFAST=   F  fast interpolation
   KINTER  =     0    interpolate to denser k-point grid
   CSHIFT  =0.1000    complex shift for real part using Kramers Kronig
   OMEGAMAX=  -1.0    maximum frequency
   DEG_THRESHOLD= 0.2000000E-02 threshold for treating states as degnerate
   RTIME   =   -0.100 relaxation time in fs
  (WPLASMAI=    0.000 imaginary part of plasma frequency in eV, 0.658/RTIME)
   DFIELD  = 0.0000000 0.0000000 0.0000000 field for delta impulse in time
 
 Orbital magnetization related:
   ORBITALMAG=     F  switch on orbital magnetization
   LCHIMAG   =     F  perturbation theory with respect to B field
   DQ        =  0.001000  dq finite difference perturbation B field
   LLRAUG    =     F  two centre corrections for induced B field



--------------------------------------------------------------------------------------------------------


 Static calculation
 charge density and potential will be updated during run
 spin polarized calculation
 Variant of blocked Davidson
 Davidson routine will perform the subspace rotation
 perform sub-space diagonalisation
    after iterative eigenvector-optimisation
 modified Broyden-mixing scheme, WC =      100.0
 initial mixing is a Kerker type mixing with AMIX =  0.4000 and BMIX =      1.0000
 Hartree-type preconditioning will be used
 using additional bands           20
 real space projection scheme for non local part
 use partial core corrections
 calculate Harris-corrections to forces 
   (improved forces if not selfconsistent)
 use gradient corrections 
 use of overlap-Matrix (Vanderbilt PP)
 Gauss-broadening in eV      SIGMA  =   0.05


--------------------------------------------------------------------------------------------------------


  energy-cutoff  :      500.00
  volume of cell :     1688.76
      direct lattice vectors                 reciprocal lattice vectors
     9.874235153  0.000000000  0.000000000     0.101273667  0.058470379  0.000000000
    -4.937117577  8.551338486  0.000000000     0.000000000  0.116940757  0.000000000
     0.000000000  0.000000000 20.000000000     0.000000000  0.000000000  0.050000000

  length of vectors
     9.874235153  9.874235153 20.000000000     0.116940757  0.116940757  0.050000000


 
 k-points in units of 2pi/SCALE and weight: Automatic mesh                          
   0.00000000  0.00000000  0.00000000       1.000
 
 k-points in reciprocal lattice and weights: Automatic mesh                          
   0.00000000  0.00000000  0.00000000       1.000
 
 position of ions in fractional coordinates (direct lattice) 
   0.50000000  0.49999997  0.76116168
   0.50000000  0.49999997  0.64906648
   0.42264305  0.50003352  0.61845104
   0.57719642  0.49992175  0.61850374
 
 position of ions in cartesian coordinates  (Angst):
   2.46855894  4.27566899 15.22323366
   2.46855894  4.27566899 12.98132954
   1.70455258  4.27595589 12.36902079
   3.23120075  4.27500012 12.37007483
 


--------------------------------------------------------------------------------------------------------


 use serial FFT for orbitals x direction half grid
 k-point  1 :   0.0000 0.0000 0.0000  plane waves:   21373

 maximum and minimum number of plane-waves per node :     21373    21373

 maximum number of plane-waves:     21373
 maximum index in each direction: 
   IXMAX=   18   IYMAX=   15   IZMAX=   36
   IXMIN=    0   IYMIN=  -18   IZMIN=  -36


 serial   3D FFT for wavefunctions
 parallel 3D FFT for charge:
    minimum data exchange during FFTs selected (reduces bandwidth)


 total amount of memory used by VASP MPI-rank0   222082. kBytes
=======================================================================

   base      :      30000. kBytes
   nonlr-proj:       1241. kBytes
   fftplans  :      12573. kBytes
   grid      :     177572. kBytes
   one-center:         12. kBytes
   wavefun   :        684. kBytes
 
     INWAV:  cpu time    0.0000: real time    0.0001
 Broyden mixing: mesh for mixing (old mesh)
   NGX = 37   NGY = 37   NGZ = 73
  (NGX  =112   NGY  =112   NGZ  =216)
  gives a total of  99937 points

 initial charge density was supplied:
 charge density of overlapping atoms calculated
 number of electron      15.0000000 magnetization       4.0000000
 keeping initial charge density in first step


--------------------------------------------------------------------------------------------------------


 Maximum index for non-local projection operator         9969
 Maximum index for augmentation-charges          330 (set IRDMAX)


--------------------------------------------------------------------------------------------------------


 First call to EWALD:  gamma=   0.149
 Maximum number of real-space cells 4x 4x 2
 Maximum number of reciprocal cells 2x 2x 4

    FEWALD:  cpu time    0.0011: real time    0.0011


--------------------------------------- Iteration      1(   1)  ---------------------------------------


    POTLOK:  cpu time    0.2560: real time    0.2579
    SETDIJ:  cpu time    0.0031: real time    0.0031
     EDDAV:  cpu time    1.2397: real time    1.2422
       DOS:  cpu time    0.0013: real time    0.0014
    --------------------------------------------
      LOOP:  cpu time    1.5002: real time    1.5047

 eigenvalue-minimisations  :   168
 total energy-change (2. order) : 0.4708358E+02  (-0.5176947E+03)
 number of electron      15.0000000 magnetization       4.0000000
 augmentation part       15.0000000 magnetization       4.0000000

 Free energy of the ion-electron system (eV)
  ---------------------------------------------------
  alpha Z        PSCENC =         0.63583724
  Ewald energy   TEWEN  =       226.49941743
  -Hartree energ DENC   =     -1110.89660907
  -exchange      EXHF   =         0.00000000
  -V(xc)+E(xc)   XCENC  =        57.43051147
  PAW double counting   =       722.29049811     -812.67069730
  entropy T*S    EENTRO =        -0.00000000
  eigenvalues    EBANDS =      -259.57648424
  atomic energy  EATOM  =      1223.37110519
  Solvation  Ediel_sol  =         0.00000000
  ---------------------------------------------------
  free energy    TOTEN  =        47.08357883 eV

  energy without entropy =       47.08357883  energy(sigma->0) =       47.08357883


--------------------------------------------------------------------------------------------------------




--------------------------------------- Iteration      1(   2)  ---------------------------------------


     EDDAV:  cpu time    0.8944: real time    0.8964
       DOS:  cpu time    0.0011: real time    0.0011
    --------------------------------------------
      LOOP:  cpu time    0.8954: real time    0.8975

 eigenvalue-minimisations  :   112
 total energy-change (2. order) :-0.5411778E+02  (-0.5411778E+02)
 number of electron      15.0000000 magnetization       4.0000000
 augmentation part       15.0000000 magnetization       4.0000000

 Free energy of the ion-electron system (eV)
  ---------------------------------------------------
  alpha Z        PSCENC =         0.63583724
  Ewald energy   TEWEN  =       226.49941743
  -Hartree energ DENC   =     -1110.89660907
  -exchange      EXHF   =         0.00000000
  -V(xc)+E(xc)   XCENC  =        57.43051147
  PAW double counting   =       722.29049811     -812.67069730
  entropy T*S    EENTRO =        -0.00000000
  eigenvalues    EBANDS =      -313.69425971
  atomic energy  EATOM  =      1223.37110519
  Solvation  Ediel_sol  =         0.00000000
  ---------------------------------------------------
  free energy    TOTEN  =        -7.03419664 eV

  energy without entropy =       -7.03419664  energy(sigma->0) =       -7.03419664


--------------------------------------------------------------------------------------------------------




--------------------------------------- Iteration      1(   3)  ---------------------------------------


     EDDAV:  cpu time    0.9063: real time    0.9069
       DOS:  cpu time    0.0009: real time    0.0009
    --------------------------------------------
      LOOP:  cpu time    0.9072: real time    0.9078

 eigenvalue-minimisations  :   112
 total energy-change (2. order) :-0.6251015E+01  (-0.6251015E+01)
 number of electron      15.0000000 magnetization       4.0000000
 augmentation part       15.0000000 magnetization       4.0000000

 Free energy of the ion-electron system (eV)
  ---------------------------------------------------
  alpha Z        PSCENC =         0.63583724
  Ewald energy   TEWEN  =       226.49941743
  -Hartree energ DENC   =     -1110.89660907
  -exchange      EXHF   =         0.00000000
  -V(xc)+E(xc)   XCENC  =        57.43051147
  PAW double counting   =       722.29049811     -812.67069730
  entropy T*S    EENTRO =        -0.00000000
  eigenvalues    EBANDS =      -319.94527459
  atomic energy  EATOM  =      1223.37110519
  Solvation  Ediel_sol  =         0.00000000
  ---------------------------------------------------
  free energy    TOTEN  =       -13.28521152 eV

  energy without entropy =      -13.28521152  energy(sigma->0) =      -13.28521152


--------------------------------------------------------------------------------------------------------




--------------------------------------- Iteration      1(   4)  ---------------------------------------


     EDDAV:  cpu time    1.2190: real time    1.2197
       DOS:  cpu time    0.0014: real time    0.0014
    --------------------------------------------
      LOOP:  cpu time    1.2204: real time    1.2211

 eigenvalue-minimisations  :   168
 total energy-change (2. order) :-0.1081285E+00  (-0.1081285E+00)
 number of electron      15.0000000 magnetization       4.0000000
 augmentation part       15.0000000 magnetization       4.0000000

 Free energy of the ion-electron system (eV)
  ---------------------------------------------------
  alpha Z        PSCENC =         0.63583724
  Ewald energy   TEWEN  =       226.49941743
  -Hartree energ DENC   =     -1110.89660907
  -exchange      EXHF   =         0.00000000
  -V(xc)+E(xc)   XCENC  =        57.43051147
  PAW double counting   =       722.29049811     -812.67069730
  entropy T*S    EENTRO =        -0.00000000
  eigenvalues    EBANDS =      -320.05340312
  atomic energy  EATOM  =      1223.37110519
  Solvation  Ediel_sol  =         0.00000000
  ---------------------------------------------------
  free energy    TOTEN  =       -13.39334006 eV

  energy without entropy =      -13.39334006  energy(sigma->0) =      -13.39334006


--------------------------------------------------------------------------------------------------------




--------------------------------------- Iteration      1(   5)  ---------------------------------------


     EDDAV:  cpu time    1.2921: real time    1.2956
       DOS:  cpu time    0.0013: real time    0.0013
    CHARGE:  cpu time    0.2160: real time    0.2160
    MIXING:  cpu time    0.0043: real time    0.0043
    --------------------------------------------
      LOOP:  cpu time    1.5137: real time    1.5173

 eigenvalue-minimisations  :   168
 total energy-change (2. order) :-0.9750686E-03  (-0.9750690E-03)
 number of electron      15.0000055 magnetization       3.5688152
 augmentation part        5.3161072 magnetization       2.5671415

 Broyden mixing:
  rms(total) = 0.15085E+01    rms(broyden)= 0.15083E+01
  rms(prec ) = 0.15644E+01
  weight for this iteration     100.00

 Free energy of the ion-electron system (eV)
  ---------------------------------------------------
  alpha Z        PSCENC =         0.63583724
  Ewald energy   TEWEN  =       226.49941743
  -Hartree energ DENC   =     -1110.89660907
  -exchange      EXHF   =         0.00000000
  -V(xc)+E(xc)   XCENC  =        57.43051147
  PAW double counting   =       722.29049811     -812.67069730
  entropy T*S    EENTRO =        -0.00000000
  eigenvalues    EBANDS =      -320.05437819
  atomic energy  EATOM  =      1223.37110519
  Solvation  Ediel_sol  =         0.00000000
  ---------------------------------------------------
  free energy    TOTEN  =       -13.39431512 eV

  energy without entropy =      -13.39431512  energy(sigma->0) =      -13.39431512


--------------------------------------------------------------------------------------------------------




--------------------------------------- Iteration      1(   6)  ---------------------------------------


    POTLOK:  cpu time    0.2192: real time    0.2200
    SETDIJ:  cpu time    0.0033: real time    0.0033
     EDDAV:  cpu time    1.2190: real time    1.2205
       DOS:  cpu time    0.0009: real time    0.0009
    CHARGE:  cpu time    0.2095: real time    0.2095
    MIXING:  cpu time    0.0044: real time    0.0044
    --------------------------------------------
      LOOP:  cpu time    1.6563: real time    1.6587

 eigenvalue-minimisations  :   168
 total energy-change (2. order) : 0.1465573E+02  (-0.3264537E+01)
 number of electron      15.0000057 magnetization       3.2452818
 augmentation part        5.2237827 magnetization       2.1085596

 Broyden mixing:
  rms(total) = 0.50554E+00    rms(broyden)= 0.50517E+00
  rms(prec ) = 0.51934E+00
  weight for this iteration     100.00

 eigenvalues of (default mixing * dielectric matrix)
  average eigenvalue GAMMA=   0.8445
  0.8445

 Free energy of the ion-electron system (eV)
  ---------------------------------------------------
  alpha Z        PSCENC =         0.63583724
  Ewald energy   TEWEN  =       226.49941743
  -Hartree energ DENC   =     -1139.98666655
  -exchange      EXHF   =         0.00000000
  -V(xc)+E(xc)   XCENC  =        71.55440169
  PAW double counting   =       779.63722087     -870.24684660
  entropy T*S    EENTRO =        -0.00000000
  eigenvalues    EBANDS =      -290.20305011
  atomic energy  EATOM  =      1223.37110519
  Solvation  Ediel_sol  =         0.00000000
  ---------------------------------------------------
  free energy    TOTEN  =         1.26141915 eV

  energy without entropy =        1.26141915  energy(sigma->0) =        1.26141915


--------------------------------------------------------------------------------------------------------




--------------------------------------- Iteration      1(   7)  ---------------------------------------


    POTLOK:  cpu time    0.2129: real time    0.2147
    SETDIJ:  cpu time    0.0033: real time    0.0033
     EDDAV:  cpu time    1.0742: real time    1.0750
       DOS:  cpu time    0.0019: real time    0.0019
    CHARGE:  cpu time    0.2085: real time    0.2085
    MIXING:  cpu time    0.0046: real time    0.0046
    --------------------------------------------
      LOOP:  cpu time    1.5053: real time    1.5080

 eigenvalue-minimisations  :   140
 total energy-change (2. order) :-0.7773349E+01  (-0.5003025E+00)
 number of electron      15.0000056 magnetization       2.9526395
 augmentation part        5.1646595 magnetization       1.8781533

 Broyden mixing:
  rms(total) = 0.30922E+00    rms(broyden)= 0.30918E+00
  rms(prec ) = 0.31936E+00
  weight for this iteration     100.00

 eigenvalues of (default mixing * dielectric matrix)
  average eigenvalue GAMMA=   0.8335
  0.8335  0.8335

 Free energy of the ion-electron system (eV)
  ---------------------------------------------------
  alpha Z        PSCENC =         0.63583724
  Ewald energy   TEWEN  =       226.49941743
  -Hartree energ DENC   =     -1145.61749597
  -exchange      EXHF   =         0.00000000
  -V(xc)+E(xc)   XCENC  =        65.77139692
  PAW double counting   =       793.88525598     -885.20381327
  entropy T*S    EENTRO =        -0.00000000
  eigenvalues    EBANDS =      -285.85363352
  atomic energy  EATOM  =      1223.37110519
  Solvation  Ediel_sol  =         0.00000000
  ---------------------------------------------------
  free energy    TOTEN  =        -6.51193002 eV

  energy without entropy =       -6.51193002  energy(sigma->0) =       -6.51193002


--------------------------------------------------------------------------------------------------------




--------------------------------------- Iteration      1(   8)  ---------------------------------------


    POTLOK:  cpu time    0.2103: real time    0.2104
    SETDIJ:  cpu time    0.0033: real time    0.0033
     EDDAV:  cpu time    1.3891: real time    1.3893
       DOS:  cpu time    0.0012: real time    0.0011
    CHARGE:  cpu time    0.2091: real time    0.2091
    MIXING:  cpu time    0.0048: real time    0.0048
    --------------------------------------------
      LOOP:  cpu time    1.8177: real time    1.8181

 eigenvalue-minimisations  :   196
 total energy-change (2. order) :-0.1462070E+01  (-0.5488829E-01)
 number of electron      15.0000056 magnetization       2.3698551
 augmentation part        5.1747946 magnetization       1.3105859

 Broyden mixing:
  rms(total) = 0.19200E+00    rms(broyden)= 0.19199E+00
  rms(prec ) = 0.19974E+00
  weight for this iteration     100.00

 eigenvalues of (default mixing * dielectric matrix)
  average eigenvalue GAMMA=   1.1965
  1.7448  1.1050  0.7398

 Free energy of the ion-electron system (eV)
  ---------------------------------------------------
  alpha Z        PSCENC =         0.63583724
  Ewald energy   TEWEN  =       226.49941743
  -Hartree energ DENC   =     -1145.22952090
  -exchange      EXHF   =         0.00000000
  -V(xc)+E(xc)   XCENC  =        64.40943045
  PAW double counting   =       796.55180171     -887.68406854
  entropy T*S    EENTRO =        -0.00000000
  eigenvalues    EBANDS =      -286.52800253
  atomic energy  EATOM  =      1223.37110519
  Solvation  Ediel_sol  =         0.00000000
  ---------------------------------------------------
  free energy    TOTEN  =        -7.97399995 eV

  energy without entropy =       -7.97399995  energy(sigma->0) =       -7.97399995


--------------------------------------------------------------------------------------------------------




--------------------------------------- Iteration      1(   9)  ---------------------------------------


    POTLOK:  cpu time    0.2081: real time    0.2083
    SETDIJ:  cpu time    0.0033: real time    0.0033
     EDDAV:  cpu time    1.0545: real time    1.0548
       DOS:  cpu time    0.0011: real time    0.0011
    CHARGE:  cpu time    0.2076: real time    0.2076
    MIXING:  cpu time    0.0049: real time    0.0049
    --------------------------------------------
      LOOP:  cpu time    1.4795: real time    1.4800

 eigenvalue-minimisations  :   140
 total energy-change (2. order) :-0.2819688E+01  (-0.1205419E+00)
 number of electron      15.0000056 magnetization       2.1962788
 augmentation part        5.1739116 magnetization       1.1649251

 Broyden mixing:
  rms(total) = 0.76138E-01    rms(broyden)= 0.76099E-01
  rms(prec ) = 0.81519E-01
  weight for this iteration     100.00

 eigenvalues of (default mixing * dielectric matrix)
  average eigenvalue GAMMA=   1.1161
  1.9832  0.9765  0.7840  0.7207

 Free energy of the ion-electron system (eV)
  ---------------------------------------------------
  alpha Z        PSCENC =         0.63583724
  Ewald energy   TEWEN  =       226.49941743
  -Hartree energ DENC   =     -1146.16217960
  -exchange      EXHF   =         0.00000000
  -V(xc)+E(xc)   XCENC  =        62.03338605
  PAW double counting   =       802.50311523     -893.61417413
  entropy T*S    EENTRO =        -0.00000000
  eigenvalues    EBANDS =      -286.06019565
  atomic energy  EATOM  =      1223.37110519
  Solvation  Ediel_sol  =         0.00000000
  ---------------------------------------------------
  free energy    TOTEN  =       -10.79368824 eV

  energy without entropy =      -10.79368824  energy(sigma->0) =      -10.79368824


--------------------------------------------------------------------------------------------------------




--------------------------------------- Iteration      1(  10)  ---------------------------------------


    POTLOK:  cpu time    0.2088: real time    0.2089
    SETDIJ:  cpu time    0.0033: real time    0.0033
     EDDAV:  cpu time    1.2273: real time    1.2274
       DOS:  cpu time    0.0012: real time    0.0012
    CHARGE:  cpu time    0.2109: real time    0.2109
    MIXING:  cpu time    0.0062: real time    0.0062
    --------------------------------------------
      LOOP:  cpu time    1.6576: real time    1.6578

 eigenvalue-minimisations  :   168
 total energy-change (2. order) :-0.5419006E+00  (-0.7742672E-02)
 number of electron      15.0000056 magnetization       1.8031480
 augmentation part        5.1652423 magnetization       0.7780229

 Broyden mixing:
  rms(total) = 0.54769E-01    rms(broyden)= 0.54762E-01
  rms(prec ) = 0.59003E-01
  weight for this iteration     100.00

 eigenvalues of (default mixing * dielectric matrix)
  average eigenvalue GAMMA=   1.1764
  2.1283  1.3662  0.8565  0.8565  0.6745

 Free energy of the ion-electron system (eV)
  ---------------------------------------------------
  alpha Z        PSCENC =         0.63583724
  Ewald energy   TEWEN  =       226.49941743
  -Hartree energ DENC   =     -1146.84683218
  -exchange      EXHF   =         0.00000000
  -V(xc)+E(xc)   XCENC  =        61.58351577
  PAW double counting   =       803.76718370     -894.83427399
  entropy T*S    EENTRO =        -0.00000000
  eigenvalues    EBANDS =      -285.51154196
  atomic energy  EATOM  =      1223.37110519
  Solvation  Ediel_sol  =         0.00000000
  ---------------------------------------------------
  free energy    TOTEN  =       -11.33558879 eV

  energy without entropy =      -11.33558879  energy(sigma->0) =      -11.33558879


--------------------------------------------------------------------------------------------------------




--------------------------------------- Iteration      1(  11)  ---------------------------------------


    POTLOK:  cpu time    0.2116: real time    0.2133
    SETDIJ:  cpu time    0.0033: real time    0.0033
     EDDAV:  cpu time    1.0556: real time    1.0557
       DOS:  cpu time    0.0003: real time    0.0003
    CHARGE:  cpu time    0.2088: real time    0.2088
    MIXING:  cpu time    0.0052: real time    0.0052
    --------------------------------------------
      LOOP:  cpu time    1.4847: real time    1.4866

 eigenvalue-minimisations  :   140
 total energy-change (2. order) :-0.8523362E+00  (-0.3851450E-02)
 number of electron      15.0000056 magnetization       1.4216881
 augmentation part        5.1648858 magnetization       0.3986923

 Broyden mixing:
  rms(total) = 0.35900E-01    rms(broyden)= 0.35898E-01
  rms(prec ) = 0.37459E-01
  weight for this iteration     100.00

 eigenvalues of (default mixing * dielectric matrix)
  average eigenvalue GAMMA=   1.3122
  2.8370  1.7700  1.0193  0.7844  0.7844  0.6778

 Free energy of the ion-electron system (eV)
  ---------------------------------------------------
  alpha Z        PSCENC =         0.63583724
  Ewald energy   TEWEN  =       226.49941743
  -Hartree energ DENC   =     -1146.61968085
  -exchange      EXHF   =         0.00000000
  -V(xc)+E(xc)   XCENC  =        60.74422914
  PAW double counting   =       802.48515072     -893.38677484
  entropy T*S    EENTRO =        -0.00000000
  eigenvalues    EBANDS =      -285.91720899
  atomic energy  EATOM  =      1223.37110519
  Solvation  Ediel_sol  =         0.00000000
  ---------------------------------------------------
  free energy    TOTEN  =       -12.18792497 eV

  energy without entropy =      -12.18792497  energy(sigma->0) =      -12.18792497


--------------------------------------------------------------------------------------------------------




--------------------------------------- Iteration      1(  12)  ---------------------------------------


    POTLOK:  cpu time    0.2077: real time    0.2078
    SETDIJ:  cpu time    0.0033: real time    0.0033
     EDDAV:  cpu time    1.5504: real time    1.5509
       DOS:  cpu time    0.0003: real time    0.0003
    CHARGE:  cpu time    0.2086: real time    0.2087
    MIXING:  cpu time    0.0055: real time    0.0055
    --------------------------------------------
      LOOP:  cpu time    1.9756: real time    1.9764

 eigenvalue-minimisations  :   224
 total energy-change (2. order) :-0.1081805E+01  (-0.7098444E-02)
 number of electron      15.0000056 magnetization       1.2085553
 augmentation part        5.1626922 magnetization       0.1905186

 Broyden mixing:
  rms(total) = 0.21211E-01    rms(broyden)= 0.21210E-01
  rms(prec ) = 0.22068E-01
  weight for this iteration     100.00

 eigenvalues of (default mixing * dielectric matrix)
  average eigenvalue GAMMA=   1.5752
  4.6113  2.1059  1.1296  1.0323  0.7586  0.7586  0.6303

 Free energy of the ion-electron system (eV)
  ---------------------------------------------------
  alpha Z        PSCENC =         0.63583724
  Ewald energy   TEWEN  =       226.49941743
  -Hartree energ DENC   =     -1146.44611610
  -exchange      EXHF   =         0.00000000
  -V(xc)+E(xc)   XCENC  =        59.70617207
  PAW double counting   =       801.38885563     -892.20299205
  entropy T*S    EENTRO =        -0.00000000
  eigenvalues    EBANDS =      -286.22200900
  atomic energy  EATOM  =      1223.37110519
  Solvation  Ediel_sol  =         0.00000000
  ---------------------------------------------------
  free energy    TOTEN  =       -13.26972959 eV

  energy without entropy =      -13.26972959  energy(sigma->0) =      -13.26972959


--------------------------------------------------------------------------------------------------------




--------------------------------------- Iteration      1(  13)  ---------------------------------------


    POTLOK:  cpu time    0.2075: real time    0.2076
    SETDIJ:  cpu time    0.0032: real time    0.0032
     EDDAV:  cpu time    1.0560: real time    1.0562
       DOS:  cpu time    0.0003: real time    0.0003
    CHARGE:  cpu time    0.2107: real time    0.2107
    MIXING:  cpu time    0.0058: real time    0.0058
    --------------------------------------------
      LOOP:  cpu time    1.4835: real time    1.4838

 eigenvalue-minimisations  :   140
 total energy-change (2. order) :-0.8126913E+00  (-0.4433014E-02)
 number of electron      15.0000056 magnetization       1.0660115
 augmentation part        5.1617512 magnetization       0.0508949

 Broyden mixing:
  rms(total) = 0.11717E-01    rms(broyden)= 0.11714E-01
  rms(prec ) = 0.12862E-01
  weight for this iteration     100.00

 eigenvalues of (default mixing * dielectric matrix)
  average eigenvalue GAMMA=   1.7277
  5.7794  2.4475  1.4148  1.2238  0.7818  0.7818  0.7631  0.6298

 Free energy of the ion-electron system (eV)
  ---------------------------------------------------
  alpha Z        PSCENC =         0.63583724
  Ewald energy   TEWEN  =       226.49941743
  -Hartree energ DENC   =     -1146.16629183
  -exchange      EXHF   =         0.00000000
  -V(xc)+E(xc)   XCENC  =        58.92369873
  PAW double counting   =       800.33861799     -891.11492901
  entropy T*S    EENTRO =        -0.00000000
  eigenvalues    EBANDS =      -286.56987662
  atomic energy  EATOM  =      1223.37110519
  Solvation  Ediel_sol  =         0.00000000
  ---------------------------------------------------
  free energy    TOTEN  =       -14.08242089 eV

  energy without entropy =      -14.08242089  energy(sigma->0) =      -14.08242089


--------------------------------------------------------------------------------------------------------




--------------------------------------- Iteration      1(  14)  ---------------------------------------


    POTLOK:  cpu time    0.2092: real time    0.2094
    SETDIJ:  cpu time    0.0033: real time    0.0033
     EDDAV:  cpu time    1.2200: real time    1.2202
       DOS:  cpu time    0.0003: real time    0.0003
    CHARGE:  cpu time    0.2087: real time    0.2087
    MIXING:  cpu time    0.0061: real time    0.0061
    --------------------------------------------
      LOOP:  cpu time    1.6476: real time    1.6479

 eigenvalue-minimisations  :   168
 total energy-change (2. order) :-0.5367180E+00  (-0.6248889E-02)
 number of electron      15.0000056 magnetization       1.0244412
 augmentation part        5.1613360 magnetization       0.0126437

 Broyden mixing:
  rms(total) = 0.51328E-02    rms(broyden)= 0.51231E-02
  rms(prec ) = 0.60597E-02
  weight for this iteration     100.00

 eigenvalues of (default mixing * dielectric matrix)
  average eigenvalue GAMMA=   1.7527
  6.4313  2.6373  1.6495  1.2209  0.8279  0.8279  0.8306  0.7235  0.6257

 Free energy of the ion-electron system (eV)
  ---------------------------------------------------
  alpha Z        PSCENC =         0.63583724
  Ewald energy   TEWEN  =       226.49941743
  -Hartree energ DENC   =     -1145.66370112
  -exchange      EXHF   =         0.00000000
  -V(xc)+E(xc)   XCENC  =        58.40461404
  PAW double counting   =       799.41261804     -890.18412039
  entropy T*S    EENTRO =        -0.00000000
  eigenvalues    EBANDS =      -287.09490928
  atomic energy  EATOM  =      1223.37110519
  Solvation  Ediel_sol  =         0.00000000
  ---------------------------------------------------
  free energy    TOTEN  =       -14.61913885 eV

  energy without entropy =      -14.61913885  energy(sigma->0) =      -14.61913885


--------------------------------------------------------------------------------------------------------




--------------------------------------- Iteration      1(  15)  ---------------------------------------


    POTLOK:  cpu time    0.2089: real time    0.2090
    SETDIJ:  cpu time    0.0033: real time    0.0033
     EDDAV:  cpu time    1.0530: real time    1.0534
       DOS:  cpu time    0.0003: real time    0.0003
    CHARGE:  cpu time    0.2081: real time    0.2081
    MIXING:  cpu time    0.0065: real time    0.0065
    --------------------------------------------
      LOOP:  cpu time    1.4801: real time    1.4806

 eigenvalue-minimisations  :   140
 total energy-change (2. order) :-0.1118297E+00  (-0.1934782E-02)
 number of electron      15.0000056 magnetization       1.0073082
 augmentation part        5.1610883 magnetization      -0.0030289

 Broyden mixing:
  rms(total) = 0.35121E-02    rms(broyden)= 0.35085E-02
  rms(prec ) = 0.44124E-02
  weight for this iteration     100.00

 eigenvalues of (default mixing * dielectric matrix)
  average eigenvalue GAMMA=   1.7912
  6.7413  2.8836  1.7098  1.7098  1.0809  0.9132  0.7857  0.7857  0.6709  0.6309

 Free energy of the ion-electron system (eV)
  ---------------------------------------------------
  alpha Z        PSCENC =         0.63583724
  Ewald energy   TEWEN  =       226.49941743
  -Hartree energ DENC   =     -1145.41092359
  -exchange      EXHF   =         0.00000000
  -V(xc)+E(xc)   XCENC  =        58.29555954
  PAW double counting   =       799.38433954     -890.15753382
  entropy T*S    EENTRO =        -0.00000000
  eigenvalues    EBANDS =      -287.34877008
  atomic energy  EATOM  =      1223.37110519
  Solvation  Ediel_sol  =         0.00000000
  ---------------------------------------------------
  free energy    TOTEN  =       -14.73096854 eV

  energy without entropy =      -14.73096854  energy(sigma->0) =      -14.73096854


--------------------------------------------------------------------------------------------------------




--------------------------------------- Iteration      1(  16)  ---------------------------------------


    POTLOK:  cpu time    0.2070: real time    0.2072
    SETDIJ:  cpu time    0.0033: real time    0.0033
     EDDAV:  cpu time    1.0585: real time    1.0587
       DOS:  cpu time    0.0002: real time    0.0002
    CHARGE:  cpu time    0.2080: real time    0.2080
    MIXING:  cpu time    0.0068: real time    0.0068
    --------------------------------------------
      LOOP:  cpu time    1.4839: real time    1.4842

 eigenvalue-minimisations  :   140
 total energy-change (2. order) :-0.4487581E-01  (-0.6055859E-03)
 number of electron      15.0000056 magnetization       1.0045248
 augmentation part        5.1613742 magnetization      -0.0051720

 Broyden mixing:
  rms(total) = 0.17719E-02    rms(broyden)= 0.17690E-02
  rms(prec ) = 0.23338E-02
  weight for this iteration     100.00

 eigenvalues of (default mixing * dielectric matrix)
  average eigenvalue GAMMA=   1.7977
  6.8176  3.0508  2.1238  1.8091  1.2486  0.9256  0.9256  0.7820  0.7820  0.6811
  0.6278

 Free energy of the ion-electron system (eV)
  ---------------------------------------------------
  alpha Z        PSCENC =         0.63583724
  Ewald energy   TEWEN  =       226.49941743
  -Hartree energ DENC   =     -1145.08435706
  -exchange      EXHF   =         0.00000000
  -V(xc)+E(xc)   XCENC  =        58.24193059
  PAW double counting   =       799.47634899     -890.25414587
  entropy T*S    EENTRO =        -0.00000000
  eigenvalues    EBANDS =      -287.66198086
  atomic energy  EATOM  =      1223.37110519
  Solvation  Ediel_sol  =         0.00000000
  ---------------------------------------------------
  free energy    TOTEN  =       -14.77584435 eV

  energy without entropy =      -14.77584435  energy(sigma->0) =      -14.77584435


--------------------------------------------------------------------------------------------------------




--------------------------------------- Iteration      1(  17)  ---------------------------------------


    POTLOK:  cpu time    0.2072: real time    0.2073
    SETDIJ:  cpu time    0.0033: real time    0.0033
     EDDAV:  cpu time    1.0604: real time    1.0605
       DOS:  cpu time    0.0003: real time    0.0003
    CHARGE:  cpu time    0.2110: real time    0.2110
    MIXING:  cpu time    0.0078: real time    0.0078
    --------------------------------------------
      LOOP:  cpu time    1.4900: real time    1.4903

 eigenvalue-minimisations  :   140
 total energy-change (2. order) :-0.7424295E-02  (-0.1552363E-03)
 number of electron      15.0000056 magnetization       1.0029597
 augmentation part        5.1612046 magnetization      -0.0065732

 Broyden mixing:
  rms(total) = 0.83306E-03    rms(broyden)= 0.83204E-03
  rms(prec ) = 0.12139E-02
  weight for this iteration     100.00

 eigenvalues of (default mixing * dielectric matrix)
  average eigenvalue GAMMA=   1.7882
  6.8794  3.4376  2.4848  1.6993  1.3924  0.9704  0.9704  0.8064  0.8064  0.7133
  0.6256  0.6727

 Free energy of the ion-electron system (eV)
  ---------------------------------------------------
  alpha Z        PSCENC =         0.63583724
  Ewald energy   TEWEN  =       226.49941743
  -Hartree energ DENC   =     -1144.96974708
  -exchange      EXHF   =         0.00000000
  -V(xc)+E(xc)   XCENC  =        58.23228807
  PAW double counting   =       799.64394395     -890.42596105
  entropy T*S    EENTRO =        -0.00000000
  eigenvalues    EBANDS =      -287.77015238
  atomic energy  EATOM  =      1223.37110519
  Solvation  Ediel_sol  =         0.00000000
  ---------------------------------------------------
  free energy    TOTEN  =       -14.78326864 eV

  energy without entropy =      -14.78326864  energy(sigma->0) =      -14.78326864


--------------------------------------------------------------------------------------------------------




--------------------------------------- Iteration      1(  18)  ---------------------------------------


    POTLOK:  cpu time    0.2088: real time    0.2100
    SETDIJ:  cpu time    0.0033: real time    0.0033
     EDDAV:  cpu time    1.0541: real time    1.0545
       DOS:  cpu time    0.0003: real time    0.0003
    CHARGE:  cpu time    0.2081: real time    0.2082
    MIXING:  cpu time    0.0077: real time    0.0077
    --------------------------------------------
      LOOP:  cpu time    1.4822: real time    1.4839

 eigenvalue-minimisations  :   140
 total energy-change (2. order) :-0.3883781E-02  (-0.1561776E-04)
 number of electron      15.0000056 magnetization       1.0011855
 augmentation part        5.1612067 magnetization      -0.0083181

 Broyden mixing:
  rms(total) = 0.53836E-03    rms(broyden)= 0.53803E-03
  rms(prec ) = 0.81097E-03
  weight for this iteration     100.00

 eigenvalues of (default mixing * dielectric matrix)
  average eigenvalue GAMMA=   1.8055
  6.8923  3.8918  2.5581  1.7376  1.7376  1.2476  0.9244  0.9244  0.7902  0.7902
  0.6251  0.6821  0.6706

 Free energy of the ion-electron system (eV)
  ---------------------------------------------------
  alpha Z        PSCENC =         0.63583724
  Ewald energy   TEWEN  =       226.49941743
  -Hartree energ DENC   =     -1144.91368158
  -exchange      EXHF   =         0.00000000
  -V(xc)+E(xc)   XCENC  =        58.22675413
  PAW double counting   =       799.65647207     -890.43957298
  entropy T*S    EENTRO =        -0.00000000
  eigenvalues    EBANDS =      -287.82348392
  atomic energy  EATOM  =      1223.37110519
  Solvation  Ediel_sol  =         0.00000000
  ---------------------------------------------------
  free energy    TOTEN  =       -14.78715242 eV

  energy without entropy =      -14.78715242  energy(sigma->0) =      -14.78715242


--------------------------------------------------------------------------------------------------------




--------------------------------------- Iteration      1(  19)  ---------------------------------------


    POTLOK:  cpu time    0.2079: real time    0.2080
    SETDIJ:  cpu time    0.0033: real time    0.0033
     EDDAV:  cpu time    1.0519: real time    1.0520
       DOS:  cpu time    0.0003: real time    0.0003
    CHARGE:  cpu time    0.2084: real time    0.2084
    MIXING:  cpu time    0.0081: real time    0.0081
    --------------------------------------------
      LOOP:  cpu time    1.4798: real time    1.4800

 eigenvalue-minimisations  :   140
 total energy-change (2. order) :-0.3642658E-02  (-0.1309319E-04)
 number of electron      15.0000056 magnetization       1.0004875
 augmentation part        5.1612490 magnetization      -0.0089866

 Broyden mixing:
  rms(total) = 0.28230E-03    rms(broyden)= 0.28216E-03
  rms(prec ) = 0.46196E-03
  weight for this iteration     100.00

 eigenvalues of (default mixing * dielectric matrix)
  average eigenvalue GAMMA=   1.8195
  6.8756  4.3722  2.6985  2.1163  1.7563  1.3172  0.9528  0.9528  0.8848  0.7956
  0.7956  0.6853  0.6264  0.6440

 Free energy of the ion-electron system (eV)
  ---------------------------------------------------
  alpha Z        PSCENC =         0.63583724
  Ewald energy   TEWEN  =       226.49941743
  -Hartree energ DENC   =     -1144.87356489
  -exchange      EXHF   =         0.00000000
  -V(xc)+E(xc)   XCENC  =        58.22190606
  PAW double counting   =       799.65281834     -890.43595724
  entropy T*S    EENTRO =        -0.00000000
  eigenvalues    EBANDS =      -287.86235721
  atomic energy  EATOM  =      1223.37110519
  Solvation  Ediel_sol  =         0.00000000
  ---------------------------------------------------
  free energy    TOTEN  =       -14.79079508 eV

  energy without entropy =      -14.79079508  energy(sigma->0) =      -14.79079508


--------------------------------------------------------------------------------------------------------




--------------------------------------- Iteration      1(  20)  ---------------------------------------


    POTLOK:  cpu time    0.2070: real time    0.2072
    SETDIJ:  cpu time    0.0033: real time    0.0033
     EDDAV:  cpu time    1.0508: real time    1.0509
       DOS:  cpu time    0.0003: real time    0.0003
    CHARGE:  cpu time    0.2084: real time    0.2084
    MIXING:  cpu time    0.0085: real time    0.0085
    --------------------------------------------
      LOOP:  cpu time    1.4783: real time    1.4786

 eigenvalue-minimisations  :   140
 total energy-change (2. order) :-0.1918273E-02  (-0.6039144E-05)
 number of electron      15.0000056 magnetization       1.0000681
 augmentation part        5.1612476 magnetization      -0.0094074

 Broyden mixing:
  rms(total) = 0.19421E-03    rms(broyden)= 0.19417E-03
  rms(prec ) = 0.31215E-03
  weight for this iteration     100.00

 eigenvalues of (default mixing * dielectric matrix)
  average eigenvalue GAMMA=   1.8228
  6.8795  4.7104  2.7907  2.2832  1.6417  1.6417  1.2092  0.9288  0.9288  0.8109
  0.8109  0.7557  0.6920  0.6290  0.6290

 Free energy of the ion-electron system (eV)
  ---------------------------------------------------
  alpha Z        PSCENC =         0.63583724
  Ewald energy   TEWEN  =       226.49941743
  -Hartree energ DENC   =     -1144.86234726
  -exchange      EXHF   =         0.00000000
  -V(xc)+E(xc)   XCENC  =        58.21979000
  PAW double counting   =       799.65304618     -890.43607558
  entropy T*S    EENTRO =        -0.00000000
  eigenvalues    EBANDS =      -287.87348655
  atomic energy  EATOM  =      1223.37110519
  Solvation  Ediel_sol  =         0.00000000
  ---------------------------------------------------
  free energy    TOTEN  =       -14.79271335 eV

  energy without entropy =      -14.79271335  energy(sigma->0) =      -14.79271335


--------------------------------------------------------------------------------------------------------




--------------------------------------- Iteration      1(  21)  ---------------------------------------


    POTLOK:  cpu time    0.2070: real time    0.2071
    SETDIJ:  cpu time    0.0033: real time    0.0033
     EDDAV:  cpu time    1.2222: real time    1.2224
       DOS:  cpu time    0.0002: real time    0.0002
    CHARGE:  cpu time    0.2100: real time    0.2101
    MIXING:  cpu time    0.0090: real time    0.0090
    --------------------------------------------
      LOOP:  cpu time    1.6517: real time    1.6521

 eigenvalue-minimisations  :   168
 total energy-change (2. order) :-0.1484408E-02  (-0.3715342E-05)
 number of electron      15.0000056 magnetization       0.9998517
 augmentation part        5.1612421 magnetization      -0.0096163

 Broyden mixing:
  rms(total) = 0.10335E-03    rms(broyden)= 0.10333E-03
  rms(prec ) = 0.17613E-03
  weight for this iteration     100.00

 eigenvalues of (default mixing * dielectric matrix)
  average eigenvalue GAMMA=   1.8918
  6.9059  5.2324  3.4471  2.5458  1.8689  1.8689  1.3042  1.0624  0.9058  0.9058
  0.7879  0.7879  0.7156  0.6797  0.6256  0.6256

 Free energy of the ion-electron system (eV)
  ---------------------------------------------------
  alpha Z        PSCENC =         0.63583724
  Ewald energy   TEWEN  =       226.49941743
  -Hartree energ DENC   =     -1144.85536010
  -exchange      EXHF   =         0.00000000
  -V(xc)+E(xc)   XCENC  =        58.21820764
  PAW double counting   =       799.64956916     -890.43292508
  entropy T*S    EENTRO =        -0.00000000
  eigenvalues    EBANDS =      -287.88004924
  atomic energy  EATOM  =      1223.37110519
  Solvation  Ediel_sol  =         0.00000000
  ---------------------------------------------------
  free energy    TOTEN  =       -14.79419776 eV

  energy without entropy =      -14.79419776  energy(sigma->0) =      -14.79419776


--------------------------------------------------------------------------------------------------------




--------------------------------------- Iteration      1(  22)  ---------------------------------------


    POTLOK:  cpu time    0.2082: real time    0.2084
    SETDIJ:  cpu time    0.0033: real time    0.0033
     EDDAV:  cpu time    1.0578: real time    1.0587
       DOS:  cpu time    0.0003: real time    0.0003
    CHARGE:  cpu time    0.2091: real time    0.2091
    MIXING:  cpu time    0.0093: real time    0.0093
    --------------------------------------------
      LOOP:  cpu time    1.4879: real time    1.4891

 eigenvalue-minimisations  :   140
 total energy-change (2. order) :-0.3959938E-03  (-0.4930108E-05)
 number of electron      15.0000056 magnetization       0.9997730
 augmentation part        5.1612506 magnetization      -0.0097006

 Broyden mixing:
  rms(total) = 0.66023E-04    rms(broyden)= 0.66002E-04
  rms(prec ) = 0.11461E-03
  weight for this iteration     100.00

 eigenvalues of (default mixing * dielectric matrix)
  average eigenvalue GAMMA=   1.8912
  6.9290  5.6905  3.7131  2.5810  1.8922  1.8922  1.4090  1.1580  0.9156  0.9156
  0.8859  0.7842  0.7842  0.6970  0.6541  0.6248  0.6248

 Free energy of the ion-electron system (eV)
  ---------------------------------------------------
  alpha Z        PSCENC =         0.63583724
  Ewald energy   TEWEN  =       226.49941743
  -Hartree energ DENC   =     -1144.85231953
  -exchange      EXHF   =         0.00000000
  -V(xc)+E(xc)   XCENC  =        58.21775457
  PAW double counting   =       799.64703311     -890.43050317
  entropy T*S    EENTRO =        -0.00000000
  eigenvalues    EBANDS =      -287.88291859
  atomic energy  EATOM  =      1223.37110519
  Solvation  Ediel_sol  =         0.00000000
  ---------------------------------------------------
  free energy    TOTEN  =       -14.79459376 eV

  energy without entropy =      -14.79459376  energy(sigma->0) =      -14.79459376


--------------------------------------------------------------------------------------------------------




--------------------------------------- Iteration      1(  23)  ---------------------------------------


    POTLOK:  cpu time    0.2062: real time    0.2063
    SETDIJ:  cpu time    0.0033: real time    0.0033
     EDDAV:  cpu time    0.8913: real time    0.8915
       DOS:  cpu time    0.0003: real time    0.0003
    CHARGE:  cpu time    0.2092: real time    0.2092
    MIXING:  cpu time    0.0102: real time    0.0102
    --------------------------------------------
      LOOP:  cpu time    1.3204: real time    1.3207

 eigenvalue-minimisations  :   112
 total energy-change (2. order) :-0.1389599E-03  (-0.8562209E-06)
 number of electron      15.0000056 magnetization       0.9998227
 augmentation part        5.1612424 magnetization      -0.0096449

 Broyden mixing:
  rms(total) = 0.43704E-04    rms(broyden)= 0.43690E-04
  rms(prec ) = 0.75628E-04
  weight for this iteration     100.00

 eigenvalues of (default mixing * dielectric matrix)
  average eigenvalue GAMMA=   1.9082
  6.9756  6.0839  3.7984  2.6177  2.0939  1.8284  1.8284  1.2843  1.0730  0.9147
  0.9147  0.7896  0.7896  0.7804  0.6872  0.6500  0.6190  0.6190

 Free energy of the ion-electron system (eV)
  ---------------------------------------------------
  alpha Z        PSCENC =         0.63583724
  Ewald energy   TEWEN  =       226.49941743
  -Hartree energ DENC   =     -1144.84827992
  -exchange      EXHF   =         0.00000000
  -V(xc)+E(xc)   XCENC  =        58.21753143
  PAW double counting   =       799.64988615     -890.43363420
  entropy T*S    EENTRO =        -0.00000000
  eigenvalues    EBANDS =      -287.88659603
  atomic energy  EATOM  =      1223.37110519
  Solvation  Ediel_sol  =         0.00000000
  ---------------------------------------------------
  free energy    TOTEN  =       -14.79473271 eV

  energy without entropy =      -14.79473271  energy(sigma->0) =      -14.79473271


--------------------------------------------------------------------------------------------------------




--------------------------------------- Iteration      1(  24)  ---------------------------------------


    POTLOK:  cpu time    0.2064: real time    0.2065
    SETDIJ:  cpu time    0.0033: real time    0.0033
     EDDAV:  cpu time    1.0845: real time    1.0855
       DOS:  cpu time    0.0003: real time    0.0003
    CHARGE:  cpu time    0.2081: real time    0.2081
    MIXING:  cpu time    0.0104: real time    0.0104
    --------------------------------------------
      LOOP:  cpu time    1.5130: real time    1.5142

 eigenvalue-minimisations  :   140
 total energy-change (2. order) :-0.1551302E-03  (-0.8352259E-06)
 number of electron      15.0000056 magnetization       0.9999091
 augmentation part        5.1612415 magnetization      -0.0095489

 Broyden mixing:
  rms(total) = 0.28812E-04    rms(broyden)= 0.28798E-04
  rms(prec ) = 0.44936E-04
  weight for this iteration     100.00

 eigenvalues of (default mixing * dielectric matrix)
  average eigenvalue GAMMA=   1.9232
  7.0080  6.3997  4.0114  2.8184  2.3062  1.9177  1.9177  1.3590  1.1344  0.9349
  0.9349  0.9164  0.7915  0.7915  0.7041  0.7041  0.6199  0.6352  0.6352

 Free energy of the ion-electron system (eV)
  ---------------------------------------------------
  alpha Z        PSCENC =         0.63583724
  Ewald energy   TEWEN  =       226.49941743
  -Hartree energ DENC   =     -1144.84372120
  -exchange      EXHF   =         0.00000000
  -V(xc)+E(xc)   XCENC  =        58.21728343
  PAW double counting   =       799.65268214     -890.43629503
  entropy T*S    EENTRO =        -0.00000000
  eigenvalues    EBANDS =      -287.89119705
  atomic energy  EATOM  =      1223.37110519
  Solvation  Ediel_sol  =         0.00000000
  ---------------------------------------------------
  free energy    TOTEN  =       -14.79488785 eV

  energy without entropy =      -14.79488785  energy(sigma->0) =      -14.79488785


--------------------------------------------------------------------------------------------------------




--------------------------------------- Iteration      1(  25)  ---------------------------------------


    POTLOK:  cpu time    0.2062: real time    0.2064
    SETDIJ:  cpu time    0.0033: real time    0.0033
     EDDAV:  cpu time    1.2200: real time    1.2204
       DOS:  cpu time    0.0003: real time    0.0003
    CHARGE:  cpu time    0.2084: real time    0.2084
    MIXING:  cpu time    0.0111: real time    0.0111
    --------------------------------------------
      LOOP:  cpu time    1.6492: real time    1.6498

 eigenvalue-minimisations  :   168
 total energy-change (2. order) :-0.7522492E-04  (-0.8868174E-06)
 number of electron      15.0000056 magnetization       0.9999428
 augmentation part        5.1612432 magnetization      -0.0095174

 Broyden mixing:
  rms(total) = 0.16859E-04    rms(broyden)= 0.16853E-04
  rms(prec ) = 0.29315E-04
  weight for this iteration     100.00

 eigenvalues of (default mixing * dielectric matrix)
  average eigenvalue GAMMA=   1.9426
  7.0950  6.7425  4.2079  3.1352  2.2794  2.1018  1.9049  1.5655  1.2078  1.0560
  0.9133  0.9133  0.8887  0.7829  0.7829  0.6962  0.6962  0.6191  0.6319  0.6319

 Free energy of the ion-electron system (eV)
  ---------------------------------------------------
  alpha Z        PSCENC =         0.63583724
  Ewald energy   TEWEN  =       226.49941743
  -Hartree energ DENC   =     -1144.84278608
  -exchange      EXHF   =         0.00000000
  -V(xc)+E(xc)   XCENC  =        58.21722040
  PAW double counting   =       799.65220314     -890.43551641
  entropy T*S    EENTRO =        -0.00000000
  eigenvalues    EBANDS =      -287.89244398
  atomic energy  EATOM  =      1223.37110519
  Solvation  Ediel_sol  =         0.00000000
  ---------------------------------------------------
  free energy    TOTEN  =       -14.79496307 eV

  energy without entropy =      -14.79496307  energy(sigma->0) =      -14.79496307


--------------------------------------------------------------------------------------------------------




--------------------------------------- Iteration      1(  26)  ---------------------------------------


    POTLOK:  cpu time    0.2065: real time    0.2066
    SETDIJ:  cpu time    0.0033: real time    0.0033
     EDDAV:  cpu time    1.5455: real time    1.5457
       DOS:  cpu time    0.0003: real time    0.0003
    CHARGE:  cpu time    0.2097: real time    0.2098
    MIXING:  cpu time    0.0115: real time    0.0115
    --------------------------------------------
      LOOP:  cpu time    1.9768: real time    1.9772

 eigenvalue-minimisations  :   224
 total energy-change (2. order) :-0.3632416E-04  (-0.4359555E-06)
 number of electron      15.0000056 magnetization       0.9999615
 augmentation part        5.1612442 magnetization      -0.0094987

 Broyden mixing:
  rms(total) = 0.11326E-04    rms(broyden)= 0.11322E-04
  rms(prec ) = 0.20418E-04
  weight for this iteration     100.00

 eigenvalues of (default mixing * dielectric matrix)
  average eigenvalue GAMMA=   1.9448
  7.4048  6.8211  4.2304  3.4894  2.2824  2.2824  1.8116  1.7325  1.2136  1.1548
  0.9572  0.9572  0.8465  0.8465  0.7788  0.7788  0.7078  0.6640  0.6326  0.6326
  0.6156

 Free energy of the ion-electron system (eV)
  ---------------------------------------------------
  alpha Z        PSCENC =         0.63583724
  Ewald energy   TEWEN  =       226.49941743
  -Hartree energ DENC   =     -1144.84186408
  -exchange      EXHF   =         0.00000000
  -V(xc)+E(xc)   XCENC  =        58.21717468
  PAW double counting   =       799.65158340     -890.43479770
  entropy T*S    EENTRO =        -0.00000000
  eigenvalues    EBANDS =      -287.89345555
  atomic energy  EATOM  =      1223.37110519
  Solvation  Ediel_sol  =         0.00000000
  ---------------------------------------------------
  free energy    TOTEN  =       -14.79499939 eV

  energy without entropy =      -14.79499939  energy(sigma->0) =      -14.79499939


--------------------------------------------------------------------------------------------------------




--------------------------------------- Iteration      1(  27)  ---------------------------------------


    POTLOK:  cpu time    0.2068: real time    0.2070
    SETDIJ:  cpu time    0.0033: real time    0.0033
     EDDAV:  cpu time    1.2172: real time    1.2176
       DOS:  cpu time    0.0003: real time    0.0003
    CHARGE:  cpu time    0.2085: real time    0.2085
    MIXING:  cpu time    0.0120: real time    0.0120
    --------------------------------------------
      LOOP:  cpu time    1.6481: real time    1.6486

 eigenvalue-minimisations  :   168
 total energy-change (2. order) :-0.1541636E-04  (-0.6412024E-07)
 number of electron      15.0000056 magnetization       0.9999807
 augmentation part        5.1612439 magnetization      -0.0094788

 Broyden mixing:
  rms(total) = 0.74452E-05    rms(broyden)= 0.74435E-05
  rms(prec ) = 0.14034E-04
  weight for this iteration     100.00

 eigenvalues of (default mixing * dielectric matrix)
  average eigenvalue GAMMA=   1.9791
  7.8262  6.8404  4.1614  4.0352  2.4296  2.4296  1.8934  1.8934  1.4903  1.1949
  1.0373  0.9166  0.9166  0.9303  0.7879  0.7879  0.7395  0.7038  0.6454  0.6454
  0.6245  0.6100

 Free energy of the ion-electron system (eV)
  ---------------------------------------------------
  alpha Z        PSCENC =         0.63583724
  Ewald energy   TEWEN  =       226.49941743
  -Hartree energ DENC   =     -1144.84107309
  -exchange      EXHF   =         0.00000000
  -V(xc)+E(xc)   XCENC  =        58.21714235
  PAW double counting   =       799.65111002     -890.43439380
  entropy T*S    EENTRO =        -0.00000000
  eigenvalues    EBANDS =      -287.89416016
  atomic energy  EATOM  =      1223.37110519
  Solvation  Ediel_sol  =         0.00000000
  ---------------------------------------------------
  free energy    TOTEN  =       -14.79501481 eV

  energy without entropy =      -14.79501481  energy(sigma->0) =      -14.79501481


--------------------------------------------------------------------------------------------------------




--------------------------------------- Iteration      1(  28)  ---------------------------------------


    POTLOK:  cpu time    0.2060: real time    0.2061
    SETDIJ:  cpu time    0.0033: real time    0.0033
     EDDAV:  cpu time    1.3822: real time    1.3826
       DOS:  cpu time    0.0003: real time    0.0003
    CHARGE:  cpu time    0.2085: real time    0.2086
    MIXING:  cpu time    0.0142: real time    0.0142
    --------------------------------------------
      LOOP:  cpu time    1.8145: real time    1.8151

 eigenvalue-minimisations  :   196
 total energy-change (2. order) :-0.8746746E-05  (-0.2288451E-07)
 number of electron      15.0000056 magnetization       0.9999894
 augmentation part        5.1612437 magnetization      -0.0094710

 Broyden mixing:
  rms(total) = 0.46498E-05    rms(broyden)= 0.46495E-05
  rms(prec ) = 0.87800E-05
  weight for this iteration     100.00

 eigenvalues of (default mixing * dielectric matrix)
  average eigenvalue GAMMA=   1.9917
  8.0721  6.8584  4.4358  4.1576  2.8698  2.3821  1.9526  1.9526  1.6050  1.1736
  1.1295  0.9881  0.9881  0.8769  0.8769  0.7810  0.7810  0.7042  0.6947  0.6583
  0.6373  0.6234  0.6092

 Free energy of the ion-electron system (eV)
  ---------------------------------------------------
  alpha Z        PSCENC =         0.63583724
  Ewald energy   TEWEN  =       226.49941743
  -Hartree energ DENC   =     -1144.84074018
  -exchange      EXHF   =         0.00000000
  -V(xc)+E(xc)   XCENC  =        58.21713327
  PAW double counting   =       799.65093639     -890.43430264
  entropy T*S    EENTRO =        -0.00000000
  eigenvalues    EBANDS =      -287.89441026
  atomic energy  EATOM  =      1223.37110519
  Solvation  Ediel_sol  =         0.00000000
  ---------------------------------------------------
  free energy    TOTEN  =       -14.79502356 eV

  energy without entropy =      -14.79502356  energy(sigma->0) =      -14.79502356


--------------------------------------------------------------------------------------------------------




--------------------------------------- Iteration      1(  29)  ---------------------------------------


    POTLOK:  cpu time    0.2083: real time    0.2092
    SETDIJ:  cpu time    0.0033: real time    0.0033
     EDDAV:  cpu time    1.3829: real time    1.3830
       DOS:  cpu time    0.0003: real time    0.0003
    CHARGE:  cpu time    0.2082: real time    0.2082
    MIXING:  cpu time    0.0132: real time    0.0132
    --------------------------------------------
      LOOP:  cpu time    1.8161: real time    1.8172

 eigenvalue-minimisations  :   196
 total energy-change (2. order) :-0.4194465E-05  (-0.5530059E-08)
 number of electron      15.0000056 magnetization       0.9999989
 augmentation part        5.1612431 magnetization      -0.0094617

 Broyden mixing:
  rms(total) = 0.33590E-05    rms(broyden)= 0.33589E-05
  rms(prec ) = 0.57894E-05
  weight for this iteration     100.00

 eigenvalues of (default mixing * dielectric matrix)
  average eigenvalue GAMMA=   2.0096
  8.2768  6.8757  4.8304  4.2550  3.1868  2.4436  1.9530  1.9530  1.7098  1.4340
  1.1930  1.0404  0.9428  0.9428  0.8579  0.8579  0.7817  0.7817  0.6992  0.6892
  0.6555  0.6369  0.6238  0.6086

 Free energy of the ion-electron system (eV)
  ---------------------------------------------------
  alpha Z        PSCENC =         0.63583724
  Ewald energy   TEWEN  =       226.49941743
  -Hartree energ DENC   =     -1144.84063674
  -exchange      EXHF   =         0.00000000
  -V(xc)+E(xc)   XCENC  =        58.21713317
  PAW double counting   =       799.65098396     -890.43438289
  entropy T*S    EENTRO =        -0.00000000
  eigenvalues    EBANDS =      -287.89448511
  atomic energy  EATOM  =      1223.37110519
  Solvation  Ediel_sol  =         0.00000000
  ---------------------------------------------------
  free energy    TOTEN  =       -14.79502775 eV

  energy without entropy =      -14.79502775  energy(sigma->0) =      -14.79502775


--------------------------------------------------------------------------------------------------------




--------------------------------------- Iteration      1(  30)  ---------------------------------------


    POTLOK:  cpu time    0.2069: real time    0.2070
    SETDIJ:  cpu time    0.0033: real time    0.0033
     EDDAV:  cpu time    1.2180: real time    1.2182
       DOS:  cpu time    0.0003: real time    0.0003
    CHARGE:  cpu time    0.2087: real time    0.2087
    MIXING:  cpu time    0.0137: real time    0.0137
    --------------------------------------------
      LOOP:  cpu time    1.6509: real time    1.6512

 eigenvalue-minimisations  :   168
 total energy-change (2. order) :-0.2240871E-05  (-0.7754159E-08)
 number of electron      15.0000056 magnetization       1.0000025
 augmentation part        5.1612437 magnetization      -0.0094580

 Broyden mixing:
  rms(total) = 0.24959E-05    rms(broyden)= 0.24955E-05
  rms(prec ) = 0.35196E-05
  weight for this iteration     100.00

 eigenvalues of (default mixing * dielectric matrix)
  average eigenvalue GAMMA=   2.0442
  8.5695  6.9018  5.3851  4.4098  3.4051  2.5331  2.0094  2.0094  1.9919  1.5704
  1.1939  1.1250  1.0294  0.9601  0.9062  0.9062  0.7874  0.7874  0.7162  0.7162
  0.6855  0.6364  0.6364  0.6243  0.6081

 Free energy of the ion-electron system (eV)
  ---------------------------------------------------
  alpha Z        PSCENC =         0.63583724
  Ewald energy   TEWEN  =       226.49941743
  -Hartree energ DENC   =     -1144.84043729
  -exchange      EXHF   =         0.00000000
  -V(xc)+E(xc)   XCENC  =        58.21712918
  PAW double counting   =       799.65093074     -890.43430905
  entropy T*S    EENTRO =        -0.00000000
  eigenvalues    EBANDS =      -287.89470342
  atomic energy  EATOM  =      1223.37110519
  Solvation  Ediel_sol  =         0.00000000
  ---------------------------------------------------
  free energy    TOTEN  =       -14.79502999 eV

  energy without entropy =      -14.79502999  energy(sigma->0) =      -14.79502999


--------------------------------------------------------------------------------------------------------




--------------------------------------- Iteration      1(  31)  ---------------------------------------


    POTLOK:  cpu time    0.2049: real time    0.2051
    SETDIJ:  cpu time    0.0032: real time    0.0032
     EDDAV:  cpu time    0.8922: real time    0.8924
       DOS:  cpu time    0.0003: real time    0.0003
    --------------------------------------------
      LOOP:  cpu time    1.1006: real time    1.1009

 eigenvalue-minimisations  :   112
 total energy-change (2. order) :-0.6027849E-06  (-0.6104098E-08)
 number of electron      15.0000056 magnetization       1.0000025
 augmentation part        5.1612437 magnetization      -0.0094580

 Free energy of the ion-electron system (eV)
  ---------------------------------------------------
  alpha Z        PSCENC =         0.63583724
  Ewald energy   TEWEN  =       226.49941743
  -Hartree energ DENC   =     -1144.84046925
  -exchange      EXHF   =         0.00000000
  -V(xc)+E(xc)   XCENC  =        58.21713364
  PAW double counting   =       799.65092092     -890.43427650
  entropy T*S    EENTRO =        -0.00000000
  eigenvalues    EBANDS =      -287.89469927
  atomic energy  EATOM  =      1223.37110519
  Solvation  Ediel_sol  =         0.00000000
  ---------------------------------------------------
  free energy    TOTEN  =       -14.79503060 eV

  energy without entropy =      -14.79503060  energy(sigma->0) =      -14.79503060


--------------------------------------------------------------------------------------------------------




 average (electrostatic) potential at core
  the test charge radii are     0.9254  0.7215  0.5201
  (the norm of the test charge is              1.0000)
       1 -53.8739       2 -81.4234       3 -45.1733       4 -45.1949
 
 
 
 E-fermi :  -2.1751     XC(G=0):  -0.7383     alpha+bet : -0.1803


 spin component 1

 k-point     1 :       0.0000    0.0000    0.0000
  band No.  band energies     occupation 
      1     -28.1227      1.00000
      2     -28.1146      1.00000
      3     -28.0869      1.00000
      4     -26.0480      1.00000
      5     -13.7265      1.00000
      6     -10.6671      1.00000
      7      -8.1124      1.00000
      8      -2.5006      1.00000
      9      -1.4098      0.00000
     10      -0.4424      0.00000
     11      -0.2269      0.00000
     12      -0.2114      0.00000
     13       0.1085      0.00000
     14       0.2755      0.00000
     15       0.3762      0.00000
     16       0.5976      0.00000
     17       0.8167      0.00000
     18       0.8523      0.00000
     19       1.0360      0.00000
     20       1.1167      0.00000
     21       1.3613      0.00000
     22       1.5770      0.00000
     23       1.6212      0.00000
     24       1.6929      0.00000
     25       1.7879      0.00000
     26       1.8074      0.00000
     27       1.8894      0.00000
     28       1.9874      0.00000

 spin component 2

 k-point     1 :       0.0000    0.0000    0.0000
  band No.  band energies     occupation 
      1     -28.0586      1.00000
      2     -28.0522      1.00000
      3     -28.0317      1.00000
      4     -26.0138      1.00000
      5     -13.6639      1.00000
      6     -10.6220      1.00000
      7      -8.0737      1.00000
      8      -1.6252      0.00000
      9      -0.4896      0.00000
     10       0.2758      0.00000
     11       0.5533      0.00000
     12       0.8471      0.00000
     13       0.8908      0.00000
     14       1.0505      0.00000
     15       1.2754      0.00000
     16       1.3067      0.00000
     17       1.7859      0.00000
     18       1.7975      0.00000
     19       1.8396      0.00000
     20       2.0557      0.00000
     21       2.1034      0.00000
     22       2.3321      0.00000
     23       2.3467      0.00000
     24       2.3877      0.00000
     25       2.3920      0.00000
     26       2.4227      0.00000
     27       2.5016      0.00000
     28       2.5883      0.00000


--------------------------------------------------------------------------------------------------------


 soft charge-density along one line, spin component           1
         0         1         2         3         4         5         6         7         8         9
 total charge-density along one line
 
 soft charge-density along one line, spin component           2
         0         1         2         3         4         5         6         7         8         9
 total charge-density along one line
 
 pseudopotential strength for first ion, spin component:           1
-30.446   0.000   0.000  18.218  -0.000  -0.000   0.000  -0.000
  0.000 -30.411   0.000  -0.000  18.189  -0.000   0.010  -0.004
  0.000   0.000 -30.450  -0.000  -0.000  18.221  -0.000   0.000
 18.218  -0.000  -0.000  -6.138   0.000   0.000  -0.000   0.000
 -0.000  18.189  -0.000   0.000  -6.118   0.000  -0.005   0.002
 -0.000  -0.000  18.221   0.000   0.000  -6.141   0.000  -0.000
  0.000   0.010  -0.000  -0.000  -0.005   0.000   1.417   0.011
 -0.000  -0.004   0.000   0.000   0.002  -0.000   0.011  -0.023
 pseudopotential strength for first ion, spin component:           2
-30.427   0.000  -0.000  18.204  -0.000   0.000   0.000  -0.000
  0.000 -30.390   0.000  -0.000  18.174  -0.000   0.008  -0.003
 -0.000   0.000 -30.430   0.000  -0.000  18.206  -0.000   0.000
 18.204  -0.000   0.000  -6.128   0.000  -0.000  -0.000   0.000
 -0.000  18.174  -0.000   0.000  -6.106   0.000  -0.004   0.002
  0.000  -0.000  18.206  -0.000   0.000  -6.130   0.000  -0.000
  0.000   0.008  -0.000  -0.000  -0.004   0.000   1.416   0.012
 -0.000  -0.003   0.000   0.000   0.002  -0.000   0.012  -0.023
 total augmentation occupancy for first ion, spin component:           1
  2.002   0.000   0.000   0.002   0.000   0.000   0.000   0.000
  0.000   1.999  -0.000   0.000   0.004  -0.000   0.025   0.049
  0.000  -0.000   2.002   0.000  -0.000   0.002   0.000  -0.000
  0.002   0.000   0.000   0.002   0.000   0.000  -0.000   0.000
  0.000   0.004  -0.000   0.000   0.023   0.000  -0.002   0.001
  0.000  -0.000   0.002   0.000   0.000   0.000   0.000   0.000
  0.000   0.025   0.000  -0.000  -0.002   0.000   0.786   0.003
  0.000   0.049  -0.000   0.000   0.001   0.000   0.003   0.001
 total augmentation occupancy for first ion, spin component:           2
  0.004  -0.000   0.000   0.003  -0.000   0.000  -0.000  -0.000
 -0.000   0.003  -0.000  -0.000   0.004   0.000   0.018   0.003
  0.000  -0.000   0.004   0.000   0.000   0.003   0.000   0.000
  0.003  -0.000   0.000   0.000  -0.000   0.000  -0.000  -0.000
 -0.000   0.004   0.000  -0.000   0.003   0.000   0.047   0.000
  0.000   0.000   0.003   0.000   0.000   0.000   0.000   0.000
 -0.000   0.018   0.000  -0.000   0.047   0.000   0.668   0.005
 -0.000   0.003   0.000  -0.000   0.000   0.000   0.005   0.000


------------------------ aborting loop because EDIFF is reached ----------------------------------------


    CHARGE:  cpu time    0.2109: real time    0.2110
    FORLOC:  cpu time    0.0050: real time    0.0050
    FORNL :  cpu time    0.3073: real time    0.3073
    STRESS:  cpu time    0.8961: real time    0.8963
    FORCOR:  cpu time    0.1198: real time    0.1198
    FORHAR:  cpu time    0.0172: real time    0.0173
    MIXING:  cpu time    0.0143: real time    0.0143
    OFIELD:  cpu time    0.0001: real time    0.0001

  FORCE on cell =-STRESS in cart. coord.  units (eV):
  Direction    XX          YY          ZZ          XY          YZ          ZX
  --------------------------------------------------------------------------------------
  Alpha Z     0.63584     0.63584     0.63584
  Ewald     156.47859    35.29535    34.72548    -0.07586     0.02531    -0.06648
  Hartree   438.96319   414.82962   291.04759    -0.01561     0.00640     0.01687
  E(xc)     -73.28552   -73.79007   -73.29028    -0.00066     0.00010     0.00010
  Local    -701.14216  -590.20013  -443.97701     0.07005    -0.02523     0.00634
  n-local   -53.08708   -53.72842   -53.07565    -0.00026    -0.00008     0.00878
  augment    47.71905    50.04434    48.88587     0.00052    -0.00043     0.00074
  Kinetic   183.82803   216.63939   195.20236     0.02041    -0.00611    -0.00434
  Fock        0.00000     0.00000     0.00000     0.00000     0.00000     0.00000
  -------------------------------------------------------------------------------------
  Total       0.10995    -0.27408     0.15420    -0.00143    -0.00002    -0.03800
  in kB       0.10431    -0.26003     0.14629    -0.00135    -0.00002    -0.03606
  external pressure =       -0.00 kB  Pullay stress =        0.00 kB


 VOLUME and BASIS-vectors are now :
 -----------------------------------------------------------------------------
  energy-cutoff  :      500.00
  volume of cell :     1688.76
      direct lattice vectors                 reciprocal lattice vectors
     9.874235153  0.000000000  0.000000000     0.101273667  0.058470379  0.000000000
    -4.937117577  8.551338486  0.000000000     0.000000000  0.116940757  0.000000000
     0.000000000  0.000000000 20.000000000     0.000000000  0.000000000  0.050000000

  length of vectors
     9.874235153  9.874235153 20.000000000     0.116940757  0.116940757  0.050000000


 FORCES acting on ions
    electron-ion (+dipol)            ewald-force                    non-local-force                 convergence-correction
 -----------------------------------------------------------------------------------------------
   0.895E-03 -.152E-02 -.152E+03   0.601E-03 0.132E-02 0.149E+03   -.160E-02 0.199E-03 0.239E+01   0.400E-07 -.705E-07 -.400E-05
   0.129E+00 -.205E-01 0.543E+02   -.247E+00 0.353E-01 -.117E+02   0.565E-01 -.148E-01 -.429E+02   -.104E-06 -.102E-06 -.157E-04
   0.720E+02 -.284E-01 0.639E+02   -.786E+02 0.310E-01 -.687E+02   0.642E+01 -.251E-02 0.492E+01   -.412E-05 -.257E-07 -.259E-05
   -.721E+02 0.619E-01 0.640E+02   0.789E+02 -.677E-01 -.689E+02   -.646E+01 0.569E-02 0.495E+01   0.409E-05 0.937E-08 -.260E-05
 -----------------------------------------------------------------------------------------------
   -.146E-01 0.115E-01 0.307E+02   -.142E-13 -.278E-16 -.142E-13   0.152E-01 -.114E-01 -.307E+02   -.878E-07 -.188E-06 -.249E-04
 
 
 POSITION                                       TOTAL-FORCE (eV/Angst)
 -----------------------------------------------------------------------------------
      2.46856      4.27567     15.22323        -0.000251     -0.000021      0.163679
      2.46856      4.27567     12.98133        -0.061848     -0.000047     -0.371743
      1.70455      4.27596     12.36902        -0.224428      0.000132      0.128960
      3.23120      4.27500     12.37007         0.286528     -0.000065      0.079104
 -----------------------------------------------------------------------------------
    total drift:                                0.000576      0.000091     -0.017067


--------------------------------------------------------------------------------------------------------



  FREE ENERGIE OF THE ION-ELECTRON SYSTEM (eV)
  ---------------------------------------------------
  free  energy   TOTEN  =       -14.79503060 eV

  energy  without entropy=      -14.79503060  energy(sigma->0) =      -14.79503060
 


--------------------------------------------------------------------------------------------------------


    POTLOK:  cpu time    0.2097: real time    0.2098


--------------------------------------------------------------------------------------------------------


 writing wavefunctions
     LOOP+:  cpu time   55.4383: real time   55.5097
    4ORBIT:  cpu time    0.0000: real time    0.0000

 total amount of memory used by VASP MPI-rank0   222082. kBytes
=======================================================================

   base      :      30000. kBytes
   nonlr-proj:       1241. kBytes
   fftplans  :      12573. kBytes
   grid      :     177572. kBytes
   one-center:         12. kBytes
   wavefun   :        684. kBytes
 
  
  
 General timing and accounting informations for this job:
 ========================================================
  
                  Total CPU time used (sec):       65.633
                            User time (sec):       56.766
                          System time (sec):        8.868
                         Elapsed time (sec):       66.163
  
                   Maximum memory used (kb):      622076.
                   Average memory used (kb):           0.
  
                          Minor page faults:       166849
                          Major page faults:            0
                 Voluntary context switches:         1954
