5432
Atoms. Timestep: 0
CA 0.00011477 1.21256 3.4001
CA 0.700032 4.12582e-06 3.40056
CA 2.10012 2.02822e-05 3.40544
CA 2.80012 1.2127 3.40389
CA 4.20012 1.21252 3.40191
CA 4.90001 9.36153e-05 3.40093
CA 6.30001 2.83133e-05 3.39866
CA 6.99996 1.21247 3.39592
CA 8.39988 1.21262 3.39547
CA 9.1 5.13562e-05 3.39983
CA 10.4999 0.00023385 3.4032
CA 11.1999 1.21273 3.4015
CA 12.5999 1.21272 3.3982
CA 13.2998 0.000201628 3.39967
CA 14.6998 0.00036928 3.39816
CA 15.4 1.21274 3.39635
CA 16.8 1.21278 3.39796
CA 17.5001 0.000431167 3.39856
CA 18.9 0.00053041 3.39893
CA 19.5999 1.21276 3.39911
CA 20.9999 1.21281 3.39886
CA 21.7001 0.000294141 3.40059
CA 23.1 0.000323535 3.40042
CA 23.8 1.21268 3.39896
CA 25.2 1.21268 3.39866
CA 25.9 0.000262926 3.39923
CA 27.3 0.00028238 3.39828
CA 28 1.21268 3.39816
CA 29.3999 1.21259 3.40003
CA 30.1 0.000159928 3.40086
CA 31.5 0.000252812 3.40263
CA 32.2 1.21256 3.40222
CA 33.6001 1.21272 3.40052
CA 34.3001 0.000350649 3.39973
CA 35.7 0.000375922 3.39661
CA 36.4 1.21269 3.39635
CA 37.8001 1.21268 3.39844
CA 38.5 0.000318448 3.39853
CA 39.9 0.000327757 3.40091
CA 40.6001 1.21263 3.40196
CA 41.9999 1.21263 3.40074
CA 42.7 0.000165417 3.39992
CA 44.1 0.000223023 3.40107
CA 44.8 1.21256 3.40007
CA 46.1999 1.21269 3.39929
CA 46.8999 0.000153893 3.40069
CA 48.2999 0.000163346 3.39968
CA 49 1.21266 3.39944
CA 50.4 1.21258 3.40115
CA 51.1 0.000152911 3.40335
CA 52.4999 0.000194984 3.4037
CA 53.1999 1.21261 3.3993
CA 54.5999 1.21265 3.39456
CA 55.2999 2.98883e-05 3.3978
CA 56.7 0.000255547 3.39947
CA 57.4 1.21259 3.39981
CA 58.8 1.21269 3.4017
CA 59.5 3.21111e-05 3.40155
CA 60.9 5.26759e-05 3.40007
CA 61.6001 1.21251 3.40056
CA 0.000106264 3.6374 3.40365
CA 0.700079 2.42503 3.40055
CA 2.0999 2.42514 3.39906
CA 2.79997 3.63757 3.39762
CA 4.19988 3.63756 3.39934
CA 4.89996 2.42503 3.40036
CA 6.29993 2.42497 3.39803
CA 6.99992 3.6374 3.39925
CA 8.39984 3.6375 3.39842
CA 9.09987 2.42509 3.39522
CA 10.4999 2.42519 3.39705
CA 11.1998 3.63766 3.39537
CA 12.6001 3.63781 3.39285
CA 13.3 2.42509 3.39285
CA 14.7 2.42521 3.39475
CA 15.4001 3.63755 3.39831
CA 16.7999 3.63757 3.39939
CA 17.5 2.4251 3.39892
CA 18.9 2.42526 3.39932
CA 19.6 3.63742 3.39937
CA 20.9999 3.63756 3.39708
CA 21.7 2.42507 3.39723
CA 23.0999 2.42507 3.39726
CA 23.8 3.63747 3.39774
CA 25.2 3.63759 3.39901
CA 25.8999 2.42505 3.39811
CA 27.3 2.42515 3.3985
CA 27.9999 3.63753 3.40107
CA 29.4 3.63761 3.40196
CA 30.1 2.42496 3.40159
CA 31.5002 2.42509 3.40162
CA 32.2 3.63753 3.40082
CA 33.6 3.63742 3.39949
CA 34.3001 2.425 3.39904
CA 35.6999 2.42509 3.39705
CA 36.4 3.63735 3.39786
CA 37.8 3.63753 3.39935
CA 38.5 2.42502 3.40052
CA 39.9001 2.42505 3.40225
CA 40.6 3.63738 3.40106
CA 42 3.63742 3.40037
CA 42.7 2.42493 3.40048
CA 44.0999 2.42495 3.39959
CA 44.7999 3.63744 3.4001
CA 46.1999 3.63746 3.40001
CA 46.8999 2.42503 3.39869
CA 48.2999 2.42515 3.39911
CA 49 3.63744 3.39958
CA 50.4 3.63755 3.39958
CA 51.1 2.42513 3.40141
CA 52.5 2.42509 3.40045
CA 53.2 3.63744 3.39996
CA 54.6 3.63762 3.39938
CA 55.3001 2.42518 3.39578
CA 56.7 2.42522 3.39884
CA 57.4 3.63759 3.40084
CA 58.7999 3.63766 3.40151
CA 59.4999 2.42502 3.40217
CA 60.8998 2.42504 3.40247
CA 61.5999 3.63746 3.40426
CA 62.9998 6.06223 3.39989
CA 0.699985 4.84987 3.40085
CA 2.09991 4.84998 3.39819
CA 2.79995 6.06234 3.39829
CA 4.19983 6.06243 3.40011
CA 4.89994 4.84993 3.40076
CA 6.29984 4.84991 3.40145
CA 6.9999 6.06223 3.40222
CA 8.39982 6.06231 3.40237
CA 9.09994 4.84991 3.40092
CA 10.4998 4.84996 3.39887
CA 11.1999 6.06232 3.40077
CA 12.5999 6.06247 3.40083
CA 13.3 4.85017 3.39831
CA 14.6999 4.85015 3.40096
CA 15.4 6.06244 3.40143
CA 16.7999 6.06236 3.40002
CA 17.4999 4.84984 3.40044
CA 18.8999 4.84997 3.39996
CA 19.6 6.06234 3.39955
CA 20.9999 6.06241 3.39921
CA 21.6999 4.85004 3.3976
CA 23.0999 4.84999 3.39794
CA 23.8 6.06234 3.40039
CA 25.1999 6.06238 3.40166
CA 25.8999 4.84989 3.40104
CA 27.2999 4.85 3.4024
CA 27.9999 6.06235 3.40306
CA 29.4 6.06245 3.40158
CA 30.1 4.84992 3.40144
CA 31.4999 4.85001 3.40013
CA 32.2 6.06227 3.39882
CA 33.5999 6.06232 3.39899
CA 34.2999 4.84992 3.39908
CA 35.7 4.84991 3.39893
CA 36.4 6.06222 3.40097
CA 37.8 6.06226 3.40091
CA 38.5 4.84984 3.40002
CA 39.9 4.84983 3.40003
CA 40.6 6.06221 3.39923
CA 42.0001 6.06227 3.39968
CA 42.7002 4.84974 3.40011
CA 44.0999 4.84982 3.40094
CA 44.8001 6.06218 3.40175
CA 46.2 6.06224 3.40069
CA 46.9 4.84987 3.40056
CA 48.3 4.84995 3.39942
CA 49 6.06229 3.39833
CA 50.4 6.0623 3.39849
CA 51.1001 4.8499 3.3986
CA 52.5 4.84996 3.39946
CA 53.2001 6.06235 3.40067
CA 54.6 6.06241 3.40095
CA 55.3001 4.84998 3.40064
CA 56.7 4.85004 3.40092
CA 57.3999 6.06235 3.39952
CA 58.7999 6.06246 3.3986
CA 59.4999 4.84994 3.39999
CA 60.8998 4.84997 3.40157
CA 61.5998 6.06218 3.39964
CA 62.9998 8.48709 3.39887
CA 0.69992 7.27453 3.39791
CA 2.09988 7.27475 3.39723
CA 2.79995 8.48701 3.39749
CA 4.19993 8.48715 3.39885
CA 4.89988 7.2747 3.39999
CA 6.29977 7.27465 3.40145
CA 6.9999 8.48705 3.40132
CA 8.39991 8.48711 3.40183
CA 9.09982 7.27457 3.40255
CA 10.4999 7.27474 3.40249
CA 11.1999 8.48712 3.40264
CA 12.5999 8.48711 3.40243
CA 13.3 7.27479 3.40268
CA 14.6999 7.27481 3.40192
CA 15.3998 8.48711 3.40056
CA 16.7999 8.48723 3.39939
CA 17.4999 7.27479 3.39891
CA 18.9 7.27471 3.39896
CA 19.5999 8.48717 3.39913
CA 20.9999 8.48726 3.40057
CA 21.6999 7.27467 3.40073
CA 23.1 7.27487 3.40182
CA 23.8 8.4872 3.40289
CA 25.1999 8.48719 3.40243
CA 25.9001 7.27474 3.4027
CA 27.2999 7.27465 3.40278
CA 27.9999 8.48702 3.40141
CA 29.4001 8.4871 3.40094
CA 30.1 7.2748 3.40006
CA 31.5 7.27475 3.39829
CA 32.2 8.48711 3.39737
CA 33.6 8.48726 3.39812
CA 34.2999 7.27457 3.39951
CA 35.7 7.27464 3.40134
CA 36.4 8.48706 3.40187
CA 37.8 8.48704 3.40188
CA 38.5 7.27465 3.40091
CA 39.9 7.27467 3.3997
CA 40.6001 8.48706 3.39972
CA 42.0001 8.48708 3.40002
CA 42.7 7.27462 3.40085
CA 44.1 7.27463 3.40151
CA 44.8 8.48696 3.3994
CA 46.2 8.48706 3.39764
CA 46.9 7.27459 3.39843
CA 48.3 7.27467 3.39759
CA 49 8.48706 3.39791
CA 50.4 8.48715 3.39936
CA 51.1 7.27467 3.39952
CA 52.5001 7.27476 3.40073
CA 53.2002 8.48703 3.40102
CA 54.6001 8.48716 3.40051
CA 55.3 7.27477 3.40034
CA 56.6999 7.27484 3.39968
CA 57.4 8.48721 3.39972
CA 58.8 8.48716 3.40005
CA 59.5 7.27475 3.39936
CA 60.8998 7.27476 3.39933
CA 61.5999 8.48711 3.40025
CA 1.07033e-05 10.9121 3.40039
CA 0.69997 9.69955 3.39945
CA 2.09998 9.69954 3.39884
CA 2.79994 10.9119 3.40029
CA 4.19988 10.9119 3.40052
CA 4.89992 9.69946 3.40005
CA 6.29982 9.6996 3.40014
CA 6.99997 10.912 3.3995
CA 8.39985 10.9121 3.39901
CA 9.09993 9.69948 3.40075
CA 10.4998 9.69953 3.4018
CA 11.1999 10.9119 3.40142
CA 12.5999 10.912 3.40216
CA 13.2999 9.69956 3.40171
CA 14.6998 9.69966 3.40067
CA 15.4 10.912 3.40049
CA 16.7998 10.9121 3.39965
CA 17.4999 9.69972 3.39914
CA 18.8998 9.69966 3.3989
CA 19.5998 10.912 3.39913
CA 20.9999 10.9119 3.40038
CA 21.7 9.69956 3.4013
CA 23.0999 9.69969 3.40276
CA 23.8 10.912 3.40225
CA 25.1999 10.912 3.40119
CA 25.8999 9.69953 3.40127
CA 27.2999 9.69974 3.40017
CA 28.0002 10.9119 3.39916
CA 29.4 10.912 3.39969
CA 30.1001 9.6995 3.40037
CA 31.5001 9.69957 3.39835
CA 32.2001 10.912 3.39781
CA 33.6002 10.9121 3.39844
CA 34.3002 9.69954 3.39878
CA 35.7 9.69961 3.40091
CA 36.4001 10.9121 3.40154
CA 37.8001 10.912 3.40126
CA 38.5001 9.69944 3.40123
CA 39.9001 9.69961 3.39998
CA 40.6002 10.912 3.39938
CA 42 10.912 3.39912
CA 42.7 9.69953 3.39945
CA 44.0999 9.69941 3.39895
CA 44.7999 10.9119 3.39847
CA 46.2 10.9119 3.39846
CA 46.9 9.69943 3.39777
CA 48.3 9.69952 3.39874
CA 49 10.9119 3.40054
CA 50.4 10.912 3.40084
CA 51.1 9.69954 3.40058
CA 52.5001 9.69959 3.40101
CA 53.2001 10.912 3.40117
CA 54.6 10.912 3.40125
CA 55.3 9.69958 3.40049
CA 56.7 9.6996 3.39975
CA 57.4 10.9119 3.39979
CA 58.8 10.9122 3.39934
CA 59.5 9.69956 3.40023
CA 60.9001 9.69965 3.40078
CA 61.6 10.9121 3.40032
CA 63 13.3369 3.40027
CA 0.70005 12.1244 3.40035
CA 2.09993 12.1244 3.4004
CA 2.80003 13.3367 3.40001
CA 4.1999 13.3369 3.40086
CA 4.90001 12.1243 3.40096
CA 6.29996 12.1245 3.40045
CA 6.99988 13.3369 3.4014
CA 8.3999 13.3368 3.40071
CA 9.10001 12.1244 3.3994
CA 10.4998 12.1244 3.40034
CA 11.1999 13.3367 3.40058
CA 12.5999 13.3369 3.40137
CA 13.2998 12.1243 3.402
CA 14.6999 12.1244 3.40118
CA 15.4 13.3368 3.40002
CA 16.7999 13.3369 3.39845
CA 17.4998 12.1244 3.39909
CA 18.8998 12.1245 3.39946
CA 19.5999 13.3367 3.4
CA 20.9999 13.3369 3.40085
CA 21.7 12.1244 3.40075
CA 23.0999 12.1244 3.40128
CA 23.7999 13.3367 3.39999
CA 25.1999 13.3368 3.39945
CA 25.8999 12.1245 3.39969
CA 27.2999 12.1244 3.3988
CA 28 13.3369 3.39887
CA 29.4001 13.3369 3.39858
CA 30.1001 12.1244 3.39871
CA 31.5 12.1245 3.39864
CA 32.2002 13.3368 3.39909
CA 33.6002 13.3369 3.4006
CA 34.3002 12.1245 3.40067
CA 35.7001 12.1246 3.40205
CA 36.4002 13.3368 3.4024
CA 37.8001 13.3369 3.40103
CA 38.5001 12.1244 3.40023
CA 39.9001 12.1243 3.39937
CA 40.6001 13.3367 3.39964
CA 42.0001 13.3367 3.39941
CA 42.7 12.1242 3.39888
CA 44.0999 12.1244 3.39873
CA 44.8001 13.3367 3.39939
CA 46.2 13.3367 3.39983
CA 46.9 12.1243 3.39975
CA 48.3 12.1242 3.4007
CA 49 13.3366 3.40049
CA 50.4001 13.3368 3.40025
CA 51.1 12.1244 3.40076
CA 52.5 12.1244 3.40114
CA 53.2 13.3369 3.4007
CA 54.5999 13.3369 3.4015
CA 55.3 12.1244 3.40198
CA 56.7001 12.1245 3.40084
CA 57.4001 13.3368 3.40066
CA 58.8 13.3368 3.39985
CA 59.5 12.1245 3.39874
CA 60.9 12.1246 3.39932
CA 61.6 13.3368 3.40013
CA 1.70149e-05 15.7616 3.40027
CA 0.70001 14.5492 3.40003
CA 2.0999 14.5493 3.40004
CA 2.79998 15.7617 3.40142
CA 4.19991 15.7618 3.40179
CA 4.90008 14.5491 3.4016
CA 6.29993 14.5493 3.40229
CA 6.99992 15.7616 3.40128
CA 8.39988 15.7617 3.40087
CA 9.09996 14.5493 3.40077
CA 10.5 14.5493 3.39975
CA 11.2001 15.7617 3.39887
CA 12.6001 15.7617 3.39934
CA 13.3 14.5493 3.40071
CA 14.6999 14.5492 3.40054
CA 15.3999 15.7616 3.40021
CA 16.8001 15.7617 3.39848
CA 17.4999 14.5493 3.39746
CA 18.8999 14.5493 3.39872
CA 19.6001 15.7617 3.39927
CA 20.9999 15.7617 3.40051
CA 21.7 14.5492 3.40072
CA 23.1 14.5492 3.39954
CA 23.7999 15.7616 3.39834
CA 25.1999 15.7617 3.39824
CA 25.9 14.5492 3.39896
CA 27.3 14.5492 3.39935
CA 27.9999 15.7617 3.40027
CA 29.4 15.7619 3.40031
CA 30.1 14.5493 3.39886
CA 31.5 14.5493 3.39886
CA 32.2001 15.7618 3.39912
CA 33.6001 15.7617 3.39918
CA 34.3001 14.5493 3.4009
CA 35.7002 14.5493 3.40234
CA 36.4002 15.7617 3.40126
CA 37.8001 15.7618 3.40109
CA 38.5002 14.5493 3.4008
CA 39.9001 14.5491 3.4002
CA 40.6001 15.7616 3.40043
CA 42.0001 15.7616 3.39982
CA 42.7 14.5492 3.39933
CA 44.1001 14.5493 3.39948
CA 44.8 15.7617 3.39939
CA 46.2001 15.7617 3.39966
CA 46.8999 14.5492 3.39987
CA 48.3 14.5491 3.39973
CA 49.0001 15.7615 3.39877
CA 50.4001 15.7617 3.39782
CA 51.1 14.5491 3.3986
CA 52.5 14.5493 3.39859
CA 53.2001 15.7616 3.39792
CA 54.5999 15.7617 3.39949
CA 55.3 14.5493 3.40073
CA 56.7 14.5493 3.40105
CA 57.4 15.7615 3.40136
CA 58.7999 15.7617 3.40137
CA 59.5 14.5491 3.40091
CA 60.9 14.5491 3.40068
CA 61.6001 15.7615 3.4005
CA 62.9999 18.1865 3.39838
CA 0.700041 16.9741 3.40014
CA 2.10002 16.974 3.4014
CA 2.80001 18.1864 3.40063
CA 4.19996 18.1865 3.39943
CA 4.90005 16.9741 3.40041
CA 6.29996 16.9741 3.39898
CA 7.00003 18.1864 3.39614
CA 8.40001 18.1865 3.39839
CA 9.10006 16.9741 3.39973
CA 10.5 16.9742 3.39974
CA 11.2 18.1865 3.40089
CA 12.6001 18.1866 3.39987
CA 13.3001 16.974 3.39955
CA 14.6999 16.9742 3.40032
CA 15.4 18.1865 3.40021
CA 16.7999 18.1866 3.39979
CA 17.5 16.9741 3.39884
CA 18.9 16.9743 3.39836
CA 19.6001 18.1866 3.39822
CA 21 18.1866 3.39973
CA 21.7 16.974 3.40014
CA 23.0999 16.974 3.39911
CA 23.8001 18.1864 3.39975
CA 25.2 18.1866 3.39936
CA 25.9001 16.974 3.39897
CA 27.2999 16.9742 3.40047
CA 28 18.1865 3.40154
CA 29.4 18.1866 3.40256
CA 30.1 16.9741 3.40164
CA 31.5 16.9742 3.40074
CA 32.2001 18.1866 3.40136
CA 33.6001 18.1866 3.39982
CA 34.3001 16.9741 3.39904
CA 35.7002 16.9741 3.3996
CA 36.4002 18.1865 3.39906
CA 37.8001 18.1865 3.39982
CA 38.5002 16.974 3.40086
CA 39.9 16.9742 3.40082
CA 40.6 18.1865 3.40081
CA 42.0001 18.1865 3.4003
CA 42.7001 16.974 3.39966
CA 44.1001 16.9741 3.39956
CA 44.7999 18.1865 3.39989
CA 46.2 18.1865 3.40036
CA 46.9 16.9741 3.39975
CA 48.3 16.9742 3.39948
CA 49.0001 18.1866 3.39982
CA 50.4 18.1865 3.39892
CA 51.1 16.9741 3.39751
CA 52.5 16.974 3.39732
CA 53.2 18.1864 3.39858
CA 54.6 18.1865 3.39959
CA 55.3 16.9741 3.39988
CA 56.7 16.9741 3.40116
CA 57.3999 18.1864 3.40123
CA 58.7999 18.1864 3.40046
CA 59.4999 16.974 3.40123
CA 60.9 16.9742 3.40011
CA 61.6 18.1865 3.39803
CA 63 20.6113 3.39708
CA 0.700064 19.3988 3.39784
CA 2.10002 19.3989 3.39901
CA 2.8001 20.6113 3.39954
CA 4.2 20.6113 3.39943
CA 4.9 19.3988 3.3977
CA 6.30006 19.3989 3.39634
CA 7.00014 20.6112 3.39742
CA 8.40004 20.6112 3.39888
CA 9.10009 19.3989 3.40014
CA 10.5 19.3989 3.40278
CA 11.2001 20.6113 3.4042
CA 12.6 20.6114 3.40328
CA 13.3001 19.3989 3.40048
CA 14.7001 19.3989 3.39956
CA 15.4 20.6113 3.39956
CA 16.8 20.6114 3.39979
CA 17.5 19.399 3.39912
CA 18.9 19.3991 3.39819
CA 19.6 20.6114 3.3991
CA 21 20.6116 3.39962
CA 21.7 19.399 3.40031
CA 23.0999 19.3991 3.40121
CA 23.8001 20.6114 3.40161
CA 25.2 20.6115 3.40085
CA 25.9 19.3989 3.40013
CA 27.2999 19.3991 3.4005
CA 28 20.6114 3.40028
CA 29.4 20.6115 3.40111
CA 30.1001 19.399 3.40242
CA 31.5001 19.399 3.40211
CA 32.2001 20.6114 3.40114
CA 33.6001 20.6114 3.40011
CA 34.3 19.399 3.39932
CA 35.7001 19.399 3.3986
CA 36.4002 20.6114 3.39905
CA 37.8001 20.6114 3.3996
CA 38.5 19.399 3.40004
CA 39.9 19.399 3.40103
CA 40.6001 20.6114 3.40139
CA 42.0001 20.6114 3.4016
CA 42.7001 19.399 3.40087
CA 44.1 19.3989 3.40072
CA 44.8 20.6114 3.40084
CA 46.2 20.6113 3.40018
CA 46.9 19.399 3.40042
CA 48.3001 19.399 3.4003
CA 49.0001 20.6113 3.39977
CA 50.4 20.6114 3.39976
CA 51.1 19.3988 3.39929
CA 52.5 19.3989 3.399
CA 53.2 20.6112 3.39957
CA 54.5999 20.6113 3.40014
CA 55.3 19.3988 3.4003
CA 56.6999 19.3989 3.40064
CA 57.4001 20.6113 3.39982
CA 58.8001 20.6114 3.39824
CA 59.5001 19.3989 3.3983
CA 60.9 19.3989 3.39701
CA 61.5999 20.6112 3.39627
CA 62.9999 23.0362 3.40032
CA 0.699962 21.8237 3.39892
CA 2.10001 21.8237 3.40054
CA 2.80002 23.0361 3.40303
CA 4.20002 23.0361 3.40239
CA 4.90002 21.8237 3.40069
CA 6.29996 21.8238 3.39924
CA 7.00012 23.0361 3.39888
CA 8.40003 23.0362 3.39842
CA 9.10013 21.8236 3.39953
CA 10.5 21.8237 3.40211
CA 11.2001 23.0361 3.40177
CA 12.6 23.0362 3.40201
CA 13.3002 21.8237 3.40227
CA 14.7 21.8239 3.40037
CA 15.4001 23.0361 3.40039
CA 16.8 23.0364 3.40122
CA 17.5001 21.8238 3.40096
CA 18.9 21.8239 3.40061
CA 19.6001 23.0362 3.40079
CA 21 23.0363 3.39957
CA 21.7001 21.8239 3.40002
CA 23.1 21.824 3.40074
CA 23.7999 23.0363 3.39997
CA 25.2 23.0364 3.39993
CA 25.9 21.8238 3.40007
CA 27.3 21.8238 3.39958
CA 28 23.0363 3.39903
CA 29.4001 23.0364 3.39912
CA 30.1001 21.8239 3.40025
CA 31.5001 21.8239 3.40046
CA 32.2001 23.0362 3.40058
CA 33.6001 23.0363 3.40087
CA 34.3001 21.8238 3.40028
CA 35.7001 21.8239 3.39991
CA 36.4 23.0362 3.4003
CA 37.8001 23.0363 3.39995
CA 38.5001 21.8239 3.39995
CA 39.9 21.8239 3.40061
CA 40.6 23.0362 3.40038
CA 42 23.0363 3.40145
CA 42.7 21.8238 3.40205
CA 44.1 21.8238 3.40155
CA 44.8 23.0362 3.40087
CA 46.1999 23.0363 3.39934
CA 46.9 21.8238 3.39925
CA 48.3 21.8238 3.39896
CA 49 23.0362 3.3986
CA 50.3999 23.0363 3.39907
CA 51.1 21.8238 3.39963
CA 52.4999 21.8237 3.39952
CA 53.1999 23.0361 3.3997
CA 54.6 23.0361 3.40006
CA 55.2999 21.8236 3.39999
CA 56.6999 21.8238 3.39984
CA 57.4 23.0361 3.39936
CA 58.8 23.0362 3.39829
CA 59.5001 21.8236 3.39722
CA 60.8999 21.8237 3.39651
CA 61.6 23.0361 3.39833
CA 63 25.4612 3.40311
CA 0.699938 24.2486 3.40336
CA 2.09988 24.2486 3.40402
CA 2.7999 25.4609 3.40299
CA 4.19993 25.4611 3.40072
CA 4.90001 24.2486 3.40129
CA 6.30011 24.2486 3.39873
CA 7.00002 25.4611 3.39653
CA 8.39999 25.4612 3.39706
CA 9.10006 24.2486 3.39836
CA 10.5001 24.2485 3.39993
CA 11.2001 25.461 3.39997
CA 12.5999 25.4611 3.40066
CA 13.3001 24.2486 3.4009
CA 14.7 24.2486 3.40065
CA 15.4001 25.4611 3.40101
CA 16.8 25.4611 3.40059
CA 17.5001 24.2486 3.40128
CA 18.9 24.2487 3.40074
CA 19.6001 25.461 3.39942
CA 21.0001 25.4611 3.39894
CA 21.7001 24.2487 3.39927
CA 23.1001 24.2488 3.3988
CA 23.8 25.4613 3.39876
CA 25.2 25.4613 3.39938
CA 25.9001 24.2487 3.39964
CA 27.3 24.2488 3.39971
CA 28.0002 25.4611 3.39991
CA 29.4 25.4612 3.39965
CA 30.1 24.2486 3.39949
CA 31.4999 24.2487 3.4001
CA 32.2001 25.4611 3.40128
CA 33.6002 25.4611 3.40181
CA 34.3001 24.2487 3.4014
CA 35.7001 24.2487 3.40068
CA 36.4001 25.4611 3.40018
CA 37.8 25.461 3.39934
CA 38.5 24.2486 3.39953
CA 39.9 24.2486 3.39971
CA 40.6001 25.4611 3.39974
CA 42 25.4611 3.40047
CA 42.7 24.2487 3.40137
CA 44.1 24.2486 3.40101
CA 44.7999 25.461 3.39998
CA 46.2 25.4611 3.39864
CA 46.9 24.2485 3.39883
CA 48.2999 24.2486 3.39849
CA 49 25.4611 3.39852
CA 50.4 25.4612 3.39927
CA 51.0999 24.2487 3.39958
CA 52.5 24.2487 3.39988
CA 53.1999 25.4611 3.40039
CA 54.6 25.4612 3.40074
CA 55.3001 24.2485 3.40022
CA 56.7001 24.2485 3.40002
CA 57.4 25.461 3.39945
CA 58.8 25.461 3.39849
CA 59.4999 24.2487 3.3983
CA 60.8999 24.2486 3.39924
CA 61.6 25.4611 3.40076
CA 62.9999 27.886 3.40232
CA 0.699867 26.6734 3.40336
CA 2.09985 26.6735 3.40256
CA 2.80002 27.886 3.4006
CA 4.20003 27.886 3.39774
CA 4.90008 26.6735 3.39727
CA 6.30009 26.6737 3.39552
CA 6.99996 27.8859 3.39525
CA 8.39985 27.8859 3.39587
CA 9.09999 26.6735 3.39734
CA 10.4999 26.6735 3.39839
CA 11.1999 27.8859 3.39787
CA 12.5999 27.886 3.39928
CA 13.2999 26.6734 3.4006
CA 14.7 26.6736 3.40125
CA 15.4001 27.8859 3.40109
CA 16.8 27.8861 3.40051
CA 17.5 26.6735 3.39967
CA 18.9001 26.6736 3.39884
CA 19.6001 27.886 3.39957
CA 21 27.8861 3.39946
CA 21.7002 26.6736 3.39879
CA 23.1001 26.6737 3.39841
CA 23.8 27.886 3.3987
CA 25.1999 27.8861 3.39902
CA 25.9 26.6737 3.39956
CA 27.3 26.6737 3.4001
CA 28 27.8861 3.39974
CA 29.4 27.886 3.39971
CA 30.1 26.6735 3.39988
CA 31.4999 26.6736 3.40064
CA 32.2001 27.8859 3.40103
CA 33.6001 27.8861 3.40183
CA 34.3001 26.6736 3.40195
CA 35.7001 26.6736 3.40074
CA 36.4001 27.8859 3.40048
CA 37.8 27.8861 3.39907
CA 38.5 26.6734 3.39877
CA 39.9001 26.6736 3.39892
CA 40.6 27.8859 3.39907
CA 42 27.886 3.39949
CA 42.6999 26.6735 3.40011
CA 44.0999 26.6736 3.39966
CA 44.8 27.886 3.39885
CA 46.2 27.8859 3.39824
CA 46.8999 26.6735 3.39785
CA 48.2999 26.6736 3.39819
CA 49 27.8859 3.39979
CA 50.4 27.8859 3.4013
CA 51.1 26.6735 3.40053
CA 52.5 26.6737 3.401
CA 53.2 27.886 3.40131
CA 54.5999 27.8861 3.40088
CA 55.3001 26.6735 3.40098
CA 56.7001 26.6735 3.40019
CA 57.4001 27.8859 3.39938
CA 58.8 27.8859 3.39812
CA 59.5 26.6734 3.39786
CA 60.8999 26.6736 3.3992
CA 61.6 27.886 3.39991
CA 62.9998 30.3109 3.40225
CA 0.699901 29.0984 3.40323
CA 2.09991 29.0986 3.4024
CA 2.79999 30.3109 3.40149
CA 4.19994 30.3109 3.39879
CA 4.89996 29.0984 3.39678
CA 6.29982 29.0983 3.39538
CA 6.99987 30.3108 3.39583
CA 8.39993 30.311 3.3948
CA 9.09988 29.0984 3.39516
CA 10.4998 29.0985 3.39641
CA 11.1999 30.3109 3.39772
CA 12.5999 30.3109 3.39878
CA 13.2999 29.0984 3.3995
CA 14.6999 29.0984 3.40072
CA 15.4 30.3108 3.40036
CA 16.8001 30.3108 3.40117
CA 17.5001 29.0983 3.40069
CA 18.9 29.0985 3.40052
CA 19.6001 30.3109 3.40089
CA 20.9999 30.3109 3.40031
CA 21.7001 29.0985 3.40022
CA 23.1 29.0985 3.39998
CA 23.8 30.3108 3.40098
CA 25.2 30.3109 3.40092
CA 25.9 29.0985 3.39952
CA 27.2999 29.0986 3.39917
CA 28 30.311 3.39941
CA 29.3999 30.3111 3.4001
CA 30.1001 29.0985 3.39971
CA 31.5 29.0985 3.40027
CA 32.2 30.3109 3.39997
CA 33.6 30.3108 3.40045
CA 34.3001 29.0984 3.40177
CA 35.7001 29.0984 3.40112
CA 36.4002 30.3108 3.39884
CA 37.8002 30.3109 3.39781
CA 38.5002 29.0984 3.39836
CA 39.9001 29.0983 3.39851
CA 40.6 30.3108 3.39918
CA 41.9999 30.3108 3.3995
CA 42.7 29.0983 3.39921
CA 44.0999 29.0984 3.39906
CA 44.8 30.3109 3.39977
CA 46.2 30.3109 3.4001
CA 46.8999 29.0984 3.39953
CA 48.3 29.0984 3.40038
CA 49 30.3108 3.4015
CA 50.4 30.3109 3.40175
CA 51.1001 29.0983 3.40199
CA 52.4999 29.0984 3.40153
CA 53.2001 30.3107 3.40026
CA 54.6 30.311 3.39993
CA 55.2999 29.0984 3.40057
CA 56.6999 29.0985 3.40007
CA 57.4 30.3108 3.39934
CA 58.8 30.3109 3.39841
CA 59.5 29.0984 3.39767
CA 60.8999 29.0984 3.39855
CA 61.5999 30.3108 3.39988
CA 62.9998 32.7357 3.40121
CA 0.699902 31.5233 3.40257
CA 2.09989 31.5234 3.40226
CA 2.79987 32.7357 3.40055
CA 4.19982 32.7358 3.39943
CA 4.89993 31.5233 3.39862
CA 6.29982 31.5233 3.39782
CA 6.99999 32.7357 3.39988
CA 8.4 32.7359 3.39985
CA 9.09987 31.5234 3.39733
CA 10.4999 31.5234 3.39841
CA 11.1999 32.7358 3.40028
CA 12.5999 32.7359 3.40006
CA 13.3 31.5233 3.39928
CA 14.7 31.5233 3.39974
CA 15.4 32.7357 3.40038
CA 16.8001 32.7358 3.40104
CA 17.5001 31.5233 3.40134
CA 18.9001 31.5233 3.40089
CA 19.6001 32.7357 3.3998
CA 21 32.7358 3.39914
CA 21.7 31.5233 3.4
CA 23.1 31.5234 3.40078
CA 23.8 32.7357 3.40049
CA 25.2 32.7357 3.40048
CA 25.9 31.5233 3.40056
CA 27.3 31.5234 3.4003
CA 27.9999 32.7358 3.40218
CA 29.3999 32.7358 3.40532
CA 30.1001 31.5232 3.40268
CA 31.5001 31.5234 3.40016
CA 32.2 32.7357 3.39789
CA 33.6001 32.7358 3.39672
CA 34.3001 31.5233 3.3991
CA 35.7002 31.5233 3.39819
CA 36.4002 32.7357 3.39842
CA 37.8003 32.7358 3.39849
CA 38.5002 31.5232 3.39776
CA 39.9001 31.5233 3.39922
CA 40.6001 32.7357 3.39975
CA 42.0001 32.7359 3.39986
CA 42.7 31.5233 3.39991
CA 44.1 31.5234 3.39964
CA 44.8 32.7358 3.39942
CA 46.1999 32.7358 3.39955
CA 46.9002 31.5232 3.40079
CA 48.3 31.5234 3.40076
CA 49 32.7357 3.39977
CA 50.4 32.7358 3.40038
CA 51.1 31.5232 3.40062
CA 52.5 31.5233 3.3998
CA 53.2001 32.7356 3.39924
CA 54.6 32.7357 3.39912
CA 55.3 31.5233 3.39955
CA 56.6998 31.5234 3.39962
CA 57.3999 32.7358 3.39942
CA 58.7999 32.7358 3.39925
CA 59.5 31.5232 3.39839
CA 60.8999 31.5233 3.39896
CA 61.5999 32.7357 3.39968
CA 62.9999 35.1607 3.40086
CA 0.6999 33.9481 3.40104
CA 2.09994 33.9481 3.40052
CA 2.7999 35.1607 3.39992
CA 4.19991 35.1607 3.39963
CA 4.89988 33.9482 3.3995
CA 6.29992 33.9484 3.40045
CA 6.99992 35.1607 3.4013
CA 8.4 35.1607 3.40181
CA 9.09998 33.9482 3.40166
CA 10.4998 33.9482 3.40138
CA 11.1999 35.1606 3.40149
CA 12.6 35.1607 3.40114
CA 13.3001 33.9482 3.4008
CA 14.7001 33.9484 3.40065
CA 15.4002 35.1606 3.40106
CA 16.8 35.1607 3.40114
CA 17.5 33.9482 3.40083
CA 18.9001 33.9482 3.3998
CA 19.6001 35.1607 3.3993
CA 21 35.1606 3.39886
CA 21.7 33.9482 3.39887
CA 23.1 33.9483 3.39948
CA 23.8001 35.1606 3.39946
CA 25.1999 35.1606 3.39906
CA 25.9001 33.9481 3.39919
CA 27.2999 33.9482 3.39946
CA 27.9999 35.1606 3.39837
CA 29.4 35.1607 3.39757
CA 30.1 33.9483 3.40043
CA 31.4999 33.9484 3.39689
CA 32.1999 35.1609 3.39396
CA 33.6001 35.161 3.39361
CA 34.3003 33.9483 3.39561
CA 35.7003 33.9482 3.39994
CA 36.4003 35.1607 3.40366
CA 37.8001 35.1606 3.40255
CA 38.5002 33.9482 3.39987
CA 39.9001 33.9483 3.39946
CA 40.6001 35.1606 3.39952
CA 42 35.1607 3.39971
CA 42.7001 33.9481 3.39936
CA 44.0998 33.9482 3.39862
CA 44.7999 35.1605 3.39862
CA 46.2 35.1606 3.39773
CA 46.9002 33.9481 3.39786
CA 48.3001 33.9483 3.39786
CA 49.0001 35.1605 3.39942
CA 50.4 35.1607 3.4011
CA 51.0999 33.9482 3.40049
CA 52.5 33.9482 3.40005
CA 53.2 35.1606 3.40024
CA 54.6001 35.1607 3.39918
CA 55.2999 33.9482 3.39905
CA 56.6999 33.9482 3.39927
CA 57.4 35.1607 3.39994
CA 58.7999 35.1608 3.40065
CA 59.4999 33.9482 3.39954
CA 60.8999 33.9482 3.39939
CA 61.5999 35.1607 3.40032
CA 62.9999 37.5855 3.40082
CA 0.699873 36.3731 3.40097
CA 2.09987 36.3732 3.40052
CA 2.80003 37.5854 3.39995
CA 4.19986 37.5856 3.39946
CA 4.89982 36.3732 3.39962
CA 6.29989 36.3732 3.40034
CA 6.99995 37.5855 3.40047
CA 8.39987 37.5855 3.40064
CA 9.09996 36.373 3.40137
CA 10.4999 36.3731 3.40109
CA 11.2 37.5854 3.40011
CA 12.6 37.5854 3.40012
CA 13.3 36.3731 3.40091
CA 14.7001 36.3731 3.40111
CA 15.4001 37.5855 3.40089
CA 16.8001 37.5856 3.40094
CA 17.5001 36.373 3.40122
CA 18.9 36.3731 3.4003
CA 19.6 37.5855 3.39996
CA 20.9999 37.5856 3.3998
CA 21.7 36.373 3.39952
CA 23.1 36.3731 3.39966
CA 23.8001 37.5855 3.39946
CA 25.2001 37.5856 3.39944
CA 25.9001 36.373 3.39888
CA 27.3 36.3731 3.39826
CA 28.0001 37.5855 3.39904
CA 29.3999 37.5855 3.39899
CA 30.1 36.3732 3.39763
CA 31.4999 36.3733 3.39709
CA 32.1999 37.5856 3.39797
CA 33.6 37.5857 3.39865
CA 34.3001 36.3732 3.3988
CA 35.7002 36.3731 3.40347
CA 36.4002 37.5855 3.40381
CA 37.8001 37.5856 3.40419
CA 38.5002 36.373 3.40278
CA 39.9001 36.3732 3.40026
CA 40.6001 37.5856 3.4007
CA 41.9999 37.5855 3.40095
CA 42.7001 36.373 3.40086
CA 44.0999 36.373 3.40068
CA 44.8001 37.5854 3.40115
CA 46.2001 37.5855 3.39976
CA 46.9001 36.373 3.39881
CA 48.3001 36.3731 3.39996
CA 49.0001 37.5855 3.40154
CA 50.4 37.5857 3.40181
CA 51.1001 36.3731 3.4017
CA 52.5 36.3733 3.40102
CA 53.2 37.5856 3.40058
CA 54.5999 37.5856 3.39999
CA 55.2999 36.3732 3.39949
CA 56.6999 36.3732 3.39997
CA 57.4 37.5856 3.40115
CA 58.8 37.5856 3.40227
CA 59.5 36.3732 3.40161
CA 60.8999 36.3732 3.40129
CA 61.6 37.5854 3.40169
CA 3.0233e-05 40.0104 3.39971
CA 0.699877 38.7978 3.40014
CA 2.09981 38.7979 3.3995
CA 2.79989 40.0103 3.39844
CA 4.19993 40.0103 3.39906
CA 4.89994 38.7979 3.39948
CA 6.29992 38.7979 3.40021
CA 6.99999 40.0104 3.40048
CA 8.39989 40.0104 3.40065
CA 9.09988 38.798 3.40051
CA 10.5001 38.7979 3.40007
CA 11.2001 40.0103 3.39967
CA 12.6 40.0103 3.39907
CA 13.3 38.7979 3.39956
CA 14.7 38.7979 3.40017
CA 15.4001 40.0103 3.39996
CA 16.8001 40.0104 3.39948
CA 17.5001 38.798 3.39994
CA 18.9 38.798 3.3997
CA 19.6 40.0103 3.39833
CA 20.9999 40.0105 3.3985
CA 21.6999 38.7979 3.39921
CA 23.1 38.7982 3.3993
CA 23.8001 40.0104 3.3994
CA 25.2001 40.0104 3.40031
CA 25.9001 38.798 3.40008
CA 27.3001 38.798 3.40001
CA 28.0001 40.0103 3.40142
CA 29.3999 40.0103 3.40164
CA 30.0999 38.7978 3.40019
CA 31.4999 38.7981 3.39965
CA 32.1999 40.0103 3.39908
CA 33.6 40.0105 3.39801
CA 34.3 38.798 3.39916
CA 35.7001 38.798 3.40092
CA 36.4001 40.0104 3.40017
CA 37.8002 40.0104 3.40191
CA 38.5003 38.7979 3.40315
CA 39.9001 38.798 3.40203
CA 40.6 40.0103 3.40138
CA 41.9999 40.0103 3.40027
CA 42.6999 38.7979 3.40122
CA 44.1001 38.798 3.40129
CA 44.8002 40.0104 3.39963
CA 46.2 40.0105 3.39848
CA 46.9001 38.7979 3.39945
CA 48.3 38.7979 3.40029
CA 49.0001 40.0104 3.39926
CA 50.4001 40.0105 3.40004
CA 51.1001 38.798 3.4005
CA 52.5 38.7981 3.40039
CA 53.1999 40.0104 3.40054
CA 54.5999 40.0105 3.4007
CA 55.3001 38.7979 3.40045
CA 56.7 38.7979 3.40093
CA 57.3999 40.0104 3.40151
CA 58.7999 40.0103 3.40203
CA 59.5 38.7979 3.4026
CA 60.8998 38.7978 3.40202
CA 61.6 40.0103 3.40088
CA 1.70643e-05 42.4353 3.39895
CA 0.699944 41.2228 3.39865
CA 2.09983 41.2228 3.39826
CA 2.7999 42.4351 3.39835
CA 4.19995 42.4353 3.39864
CA 4.9 41.2227 3.39911
CA 6.30008 41.2228 3.39982
CA 7.00005 42.4352 3.40001
CA 8.39993 42.4352 3.4008
CA 9.0999 41.2228 3.40118
CA 10.5 41.2228 3.40054
CA 11.2 42.4352 3.40032
CA 12.6 42.4352 3.39932
CA 13.3001 41.2227 3.39933
CA 14.7 41.2228 3.39959
CA 15.4 42.4352 3.39922
CA 16.8 42.4352 3.3986
CA 17.5002 41.2228 3.39826
CA 18.9 41.2228 3.39755
CA 19.6 42.4351 3.39752
CA 21.0001 42.4353 3.39827
CA 21.7 41.2227 3.39814
CA 23.1001 41.2227 3.39823
CA 23.8001 42.4352 3.39755
CA 25.1999 42.4352 3.39781
CA 25.9 41.2228 3.40007
CA 27.3001 41.2228 3.40164
CA 28 42.4352 3.4021
CA 29.3999 42.4352 3.40344
CA 30.1 41.2227 3.40305
CA 31.4999 41.2228 3.40035
CA 32.2 42.4351 3.39918
CA 33.5999 42.4353 3.39778
CA 34.3 41.2228 3.39743
CA 35.7 41.2228 3.39825
CA 36.4 42.4352 3.39853
CA 37.8 42.4352 3.40045
CA 38.5001 41.2227 3.40168
CA 39.9 41.2227 3.4015
CA 40.6 42.4351 3.40079
CA 41.9998 42.4352 3.39945
CA 42.7 41.2227 3.39918
CA 44.1 41.2229 3.39891
CA 44.8001 42.4352 3.39826
CA 46.2001 42.4354 3.39722
CA 46.9001 41.2228 3.39715
CA 48.3001 41.223 3.397
CA 49.0002 42.4353 3.39716
CA 50.4001 42.4354 3.39903
CA 51.1001 41.2229 3.4
CA 52.5 41.223 3.40035
CA 53.1999 42.4353 3.40015
CA 54.6001 42.4354 3.39972
CA 55.3001 41.2229 3.40057
CA 56.7001 41.2229 3.40086
CA 57.4001 42.4352 3.40055
CA 58.7999 42.4353 3.40017
CA 59.4998 41.2229 3.4007
CA 60.9 41.2229 3.40011
CA 61.6 42.4352 3.39913
CA 62.9999 44.8601 3.39849
CA 0.700001 43.6476 3.39897
CA 2.09987 43.6477 3.39868
CA 2.79992 44.86 3.39898
CA 4.20006 44.8601 3.39953
CA 4.90002 43.6475 3.39896
CA 6.29997 43.6475 3.39958
CA 7.0001 44.8599 3.3999
CA 8.40009 44.8601 3.4007
CA 9.09994 43.6475 3.40095
CA 10.4999 43.6478 3.40134
CA 11.2 44.86 3.40143
CA 12.5999 44.8601 3.40049
CA 13.2999 43.6475 3.39926
CA 14.7 43.6476 3.39887
CA 15.4001 44.86 3.39931
CA 16.8001 44.8602 3.39927
CA 17.5002 43.6476 3.39851
CA 18.9001 43.6478 3.39799
CA 19.6001 44.8601 3.39894
CA 21.0001 44.8601 3.39972
CA 21.7001 43.6476 3.39878
CA 23.1001 43.6477 3.39886
CA 23.8 44.86 3.40006
CA 25.1999 44.8601 3.39905
CA 25.9 43.6476 3.39792
CA 27.2999 43.6477 3.39983
CA 27.9999 44.86 3.39996
CA 29.3998 44.8599 3.40177
CA 30.1 43.6475 3.40211
CA 31.4998 43.6476 3.4011
CA 32.2 44.8597 3.40357
CA 33.6 44.8601 3.4004
CA 34.3 43.6476 3.398
CA 35.6999 43.6478 3.39799
CA 36.4001 44.86 3.39913
CA 37.8 44.8602 3.4004
CA 38.5 43.6476 3.40089
CA 39.9 43.6477 3.40083
CA 40.5999 44.86 3.40016
CA 41.9999 44.8601 3.39913
CA 42.7 43.6476 3.39901
CA 44.1 43.6477 3.39857
CA 44.8001 44.86 3.39827
CA 46.2 44.8603 3.39863
CA 46.9002 43.6477 3.39739
CA 48.3001 43.6478 3.39712
CA 49 44.8601 3.39821
CA 50.4 44.8601 3.39925
CA 51.1002 43.6476 3.39939
CA 52.4999 43.6478 3.40002
CA 53.2 44.8601 3.39969
CA 54.6 44.8602 3.39937
CA 55.3 43.6477 3.39943
CA 56.7 43.6477 3.39982
CA 57.4001 44.8601 3.39969
CA 58.8 44.8602 3.39903
CA 59.5 43.6476 3.39924
CA 60.9 43.6478 3.39883
CA 61.5999 44.8601 3.39908
CA 62.9998 47.2852 3.39846
CA 0.699923 46.0726 3.398
CA 2.09994 46.0727 3.39891
CA 2.79997 47.2852 3.40017
CA 4.2001 47.285 3.40099
CA 4.90011 46.0726 3.40032
CA 6.30004 46.0725 3.40023
CA 7.00019 47.2849 3.40053
CA 8.4001 47.285 3.40058
CA 9.10003 46.0724 3.40139
CA 10.5 46.0726 3.402
CA 11.2 47.285 3.40253
CA 12.5999 47.2851 3.4021
CA 13.2999 46.0725 3.40098
CA 14.7 46.0725 3.40007
CA 15.4 47.2849 3.40025
CA 16.8001 47.285 3.40049
CA 17.5002 46.0724 3.40018
CA 18.9 46.0725 3.40044
CA 19.6001 47.2849 3.40225
CA 21 47.285 3.40241
CA 21.7 46.0725 3.4011
CA 23.1 46.0725 3.40123
CA 23.8 47.2849 3.40098
CA 25.2 47.2849 3.39909