 running on   24 total cores
 distrk:  each k-point on   24 cores,    1 groups
 distr:  one band on    1 cores,   24 groups
 using from now: INCAR     
 vasp.5.4.4.18Apr17-6-g9f103f2a35 (build Apr 11 2019 18:12:45) complex          
  
 POSCAR found type information on POSCAR  C  Na
 POSCAR found :  2 types and      33 ions
 scaLAPACK will be used

 ----------------------------------------------------------------------------- 
|                                                                             |
|           W    W    AA    RRRRR   N    N  II  N    N   GGGG   !!!           |
|           W    W   A  A   R    R  NN   N  II  NN   N  G    G  !!!           |
|           W    W  A    A  R    R  N N  N  II  N N  N  G       !!!           |
|           W WW W  AAAAAA  RRRRR   N  N N  II  N  N N  G  GGG   !            |
|           WW  WW  A    A  R   R   N   NN  II  N   NN  G    G                |
|           W    W  A    A  R    R  N    N  II  N    N   GGGG   !!!           |
|                                                                             |
|      For optimal performance we recommend to set                            |
|        NCORE= 4 - approx SQRT( number of cores)                             |
|      NCORE specifies how many cores store one orbital (NPAR=cpu/NCORE).     |
|      This setting can  greatly improve the performance of VASP for DFT.     |
|      The default,   NCORE=1            might be grossly inefficient         |
|      on modern multi-core architectures or massively parallel machines.     |
|      Do your own testing !!!!                                               |
|      Unfortunately you need to use the default for GW and RPA calculations. |
|      (for HF NCORE is supported but not extensively tested yet)             |
|                                                                             |
 ----------------------------------------------------------------------------- 

 LDA part: xc-table for Pade appr. of Perdew
 found WAVECAR, reading the header
  number of k-points has changed, file:    13 present:    41
  trying to continue reading WAVECAR, but it might fail
 POSCAR, INCAR and KPOINTS ok, starting setup
 FFT: planning ...
 reading WAVECAR
 the WAVECAR file was read successfully
 augmentation electrons   134.992174439675     
 soft         electrons  0.000000000000000E+000
 augmentation electrons   134.992174439675     
 soft         electrons  0.000000000000000E+000
 augmentation electrons   134.992174439675     
 augmentation electrons   134.992174439675     
 soft         electrons  0.000000000000000E+000
 augmentation electrons   134.992174439675     
 soft         electrons  0.000000000000000E+000
 augmentation electrons   134.992174439675     
 soft         electrons  0.000000000000000E+000
 augmentation electrons   134.992174439675     
 soft         electrons  0.000000000000000E+000
 soft         electrons  0.000000000000000E+000
 augmentation electrons   134.992174439675     
 soft         electrons  0.000000000000000E+000
 augmentation electrons   134.992174439675     
 soft         electrons  0.000000000000000E+000
 augmentation electrons   134.992174439675     
 augmentation electrons   134.992174439675     
 augmentation electrons   134.992174439675     
 soft         electrons  0.000000000000000E+000
 soft         electrons  0.000000000000000E+000
 augmentation electrons   134.992174439675     
 augmentation electrons   134.992174439675     
 soft         electrons  0.000000000000000E+000
 augmentation electrons   134.992174439675     
 soft         electrons  0.000000000000000E+000
 soft         electrons  0.000000000000000E+000
 augmentation electrons   134.992174439675     
 soft         electrons  0.000000000000000E+000
 augmentation electrons   134.992174439675     
 soft         electrons  0.000000000000000E+000
 augmentation electrons   134.992174439675     
 soft         electrons  0.000000000000000E+000
 augmentation electrons   134.992174439675     
 soft         electrons  0.000000000000000E+000
 soft         electrons  0.000000000000000E+000
 augmentation electrons   134.992174439675     
 soft         electrons  0.000000000000000E+000
 augmentation electrons   134.992174439675     
 soft         electrons  0.000000000000000E+000
 augmentation electrons   134.992174439675     
 soft         electrons  0.000000000000000E+000
 augmentation electrons   134.992174439675     
 soft         electrons  0.000000000000000E+000
 augmentation electrons   134.992174439675     
 soft         electrons  0.000000000000000E+000
 total        electrons   134.992174439675     
 total        electrons   134.992174439675     
 total        electrons   134.992174439675     
 total        electrons   134.992174439675     
 total        electrons   134.992174439675     
 total        electrons   134.992174439675     
 total        electrons   134.992174439675     
 total        electrons   134.992174439675     
 total        electrons   134.992174439675     
 total        electrons   134.992174439675     
 total        electrons   134.992174439675     
 total        electrons   134.992174439675     
 total        electrons   134.992174439675     
 total        electrons   134.992174439675     
 total        electrons   134.992174439675     
 total        electrons   134.992174439675     
 total        electrons   134.992174439675     
 total        electrons   134.992174439675     
 total        electrons   134.992174439675     
 total        electrons   134.992174439675     
 total        electrons   134.992174439675     
 total        electrons   134.992174439675     
 total        electrons   134.992174439675     
 total        electrons   134.992174439675     
 augmentation electrons -1.869322419399497E-003
 augmentation electrons -1.869322419399497E-003
 augmentation electrons -1.869322419399497E-003
 augmentation electrons -1.869322419399497E-003
 soft         electrons  0.000000000000000E+000
 augmentation electrons -1.869322419399497E-003
 soft         electrons  0.000000000000000E+000
 augmentation electrons -1.869322419399497E-003
 augmentation electrons -1.869322419399497E-003
 soft         electrons  0.000000000000000E+000
 augmentation electrons -1.869322419399497E-003
 soft         electrons  0.000000000000000E+000
 augmentation electrons -1.869322419399497E-003
 augmentation electrons -1.869322419399497E-003
 soft         electrons  0.000000000000000E+000
 augmentation electrons -1.869322419399497E-003
 soft         electrons  0.000000000000000E+000
 augmentation electrons -1.869322419399497E-003
 soft         electrons  0.000000000000000E+000
 augmentation electrons -1.869322419399497E-003
 soft         electrons  0.000000000000000E+000
 augmentation electrons -1.869322419399497E-003
 augmentation electrons -1.869322419399497E-003
 soft         electrons  0.000000000000000E+000
 augmentation electrons -1.869322419399497E-003
 soft         electrons  0.000000000000000E+000
 soft         electrons  0.000000000000000E+000
 augmentation electrons -1.869322419399497E-003
 soft         electrons  0.000000000000000E+000
 augmentation electrons -1.869322419399497E-003
 soft         electrons  0.000000000000000E+000
 augmentation electrons -1.869322419399497E-003
 soft         electrons  0.000000000000000E+000
 augmentation electrons -1.869322419399497E-003
 augmentation electrons -1.869322419399497E-003
 soft         electrons  0.000000000000000E+000
 soft         electrons  0.000000000000000E+000
 soft         electrons  0.000000000000000E+000
 augmentation electrons -1.869322419399497E-003
 soft         electrons  0.000000000000000E+000
 soft         electrons  0.000000000000000E+000
 soft         electrons  0.000000000000000E+000
 augmentation electrons -1.869322419399497E-003
 soft         electrons  0.000000000000000E+000
 augmentation electrons -1.869322419399497E-003
 soft         electrons  0.000000000000000E+000
 soft         electrons  0.000000000000000E+000
 soft         electrons  0.000000000000000E+000
 total        electrons -1.869322419399497E-003
 total        electrons -1.869322419399497E-003
 total        electrons -1.869322419399497E-003
 total        electrons -1.869322419399497E-003
 total        electrons -1.869322419399497E-003
 total        electrons -1.869322419399497E-003
 total        electrons -1.869322419399497E-003
 total        electrons -1.869322419399497E-003
 total        electrons -1.869322419399497E-003
 total        electrons -1.869322419399497E-003
 total        electrons -1.869322419399497E-003
 total        electrons -1.869322419399497E-003
 total        electrons -1.869322419399497E-003
 total        electrons -1.869322419399497E-003
 total        electrons -1.869322419399497E-003
 total        electrons -1.869322419399497E-003
 total        electrons -1.869322419399497E-003
 total        electrons -1.869322419399497E-003
 total        electrons -1.869322419399497E-003
 total        electrons -1.869322419399497E-003
 total        electrons -1.869322419399497E-003
 total        electrons -1.869322419399497E-003
 total        electrons -1.869322419399497E-003
 total        electrons -1.869322419399497E-003
 augmentation electrons   68.2161733392993     
 augmentation electrons   68.2161733392993     
 augmentation electrons   68.2161733392993     
 soft         electrons  0.000000000000000E+000
 augmentation electrons   68.2161733392993     
 augmentation electrons   68.2161733392993     
 soft         electrons  0.000000000000000E+000
 augmentation electrons   68.2161733392993     
 augmentation electrons   68.2161733392993     
 augmentation electrons   68.2161733392993     
 soft         electrons  0.000000000000000E+000
 augmentation electrons   68.2161733392993     
 augmentation electrons   68.2161733392993     
 augmentation electrons   68.2161733392993     
 augmentation electrons   68.2161733392993     
 soft         electrons  0.000000000000000E+000
 soft         electrons  0.000000000000000E+000
 augmentation electrons   68.2161733392993     
 soft         electrons  0.000000000000000E+000
 soft         electrons  0.000000000000000E+000
 augmentation electrons   68.2161733392993     
 soft         electrons  0.000000000000000E+000
 soft         electrons  0.000000000000000E+000
 augmentation electrons   68.2161733392993     
 soft         electrons  0.000000000000000E+000
 soft         electrons  0.000000000000000E+000
 soft         electrons  0.000000000000000E+000
 soft         electrons  0.000000000000000E+000
 augmentation electrons   68.2161733392993     
 soft         electrons  0.000000000000000E+000
 augmentation electrons   68.2161733392993     
 soft         electrons  0.000000000000000E+000
 augmentation electrons   68.2161733392993     
 soft         electrons  0.000000000000000E+000
 augmentation electrons   68.2161733392993     
 soft         electrons  0.000000000000000E+000
 augmentation electrons   68.2161733392993     
 soft         electrons  0.000000000000000E+000
 augmentation electrons   68.2161733392993     
 soft         electrons  0.000000000000000E+000
 soft         electrons  0.000000000000000E+000
 augmentation electrons   68.2161733392993     
 soft         electrons  0.000000000000000E+000
 augmentation electrons   68.2161733392993     
 soft         electrons  0.000000000000000E+000
 augmentation electrons   68.2161733392993     
 soft         electrons  0.000000000000000E+000
 soft         electrons  0.000000000000000E+000
 total        electrons   68.2161733392993     
 total        electrons   68.2161733392993     
 total        electrons   68.2161733392993     
 total        electrons   68.2161733392993     
 total        electrons   68.2161733392993     
 total        electrons   68.2161733392993     
 total        electrons   68.2161733392993     
 total        electrons   68.2161733392993     
 total        electrons   68.2161733392993     
 total        electrons   68.2161733392993     
 total        electrons   68.2161733392993     
 total        electrons   68.2161733392993     
 total        electrons   68.2161733392993     
 total        electrons   68.2161733392993     
 total        electrons   68.2161733392993     
 total        electrons   68.2161733392993     
 total        electrons   68.2161733392993     
 total        electrons   68.2161733392993     
 total        electrons   68.2161733392993     
 total        electrons   68.2161733392993     
 total        electrons   68.2161733392993     
 total        electrons   68.2161733392993     
 total        electrons   68.2161733392993     
 total        electrons   68.2161733392993     
 augmentation electrons   67.5683548092993     
 augmentation electrons   67.5683548092993     
 augmentation electrons   67.5683548092993     
 soft         electrons  0.000000000000000E+000
 augmentation electrons   67.5683548092993     
 augmentation electrons   67.5683548092993     
 augmentation electrons   67.5683548092993     
 augmentation electrons   67.5683548092993     
 augmentation electrons   67.5683548092993     
 augmentation electrons   67.5683548092993     
 augmentation electrons   67.5683548092993     
 soft         electrons  0.000000000000000E+000
 augmentation electrons   67.5683548092993     
 soft         electrons  0.000000000000000E+000
 augmentation electrons   67.5683548092993     
 soft         electrons  0.000000000000000E+000
 augmentation electrons   67.5683548092993     
 augmentation electrons   67.5683548092993     
 augmentation electrons   67.5683548092993     
 soft         electrons  0.000000000000000E+000
 soft         electrons  0.000000000000000E+000
 soft         electrons  0.000000000000000E+000
 augmentation electrons   67.5683548092993     
 augmentation electrons   67.5683548092993     
 soft         electrons  0.000000000000000E+000
 augmentation electrons   67.5683548092993     
 soft         electrons  0.000000000000000E+000
 soft         electrons  0.000000000000000E+000
 augmentation electrons   67.5683548092993     
 soft         electrons  0.000000000000000E+000
 soft         electrons  0.000000000000000E+000
 soft         electrons  0.000000000000000E+000
 soft         electrons  0.000000000000000E+000
 soft         electrons  0.000000000000000E+000
 soft         electrons  0.000000000000000E+000
 soft         electrons  0.000000000000000E+000
 augmentation electrons   67.5683548092993     
 soft         electrons  0.000000000000000E+000
 soft         electrons  0.000000000000000E+000
 augmentation electrons   67.5683548092993     
 soft         electrons  0.000000000000000E+000
 augmentation electrons   67.5683548092993     
 soft         electrons  0.000000000000000E+000
 augmentation electrons   67.5683548092993     
 soft         electrons  0.000000000000000E+000
 augmentation electrons   67.5683548092993     
 soft         electrons  0.000000000000000E+000
 soft         electrons  0.000000000000000E+000
 total        electrons   67.5683548092993     
 total        electrons   67.5683548092993     
 total        electrons   67.5683548092993     
 total        electrons   67.5683548092993     
 total        electrons   67.5683548092993     
 total        electrons   67.5683548092993     
 total        electrons   67.5683548092993     
 total        electrons   67.5683548092993     
 total        electrons   67.5683548092993     
 total        electrons   67.5683548092993     
 total        electrons   67.5683548092993     
 total        electrons   67.5683548092993     
 total        electrons   67.5683548092993     
 total        electrons   67.5683548092993     
 total        electrons   67.5683548092993     
 total        electrons   67.5683548092993     
 total        electrons   67.5683548092993     
 total        electrons   67.5683548092993     
 total        electrons   67.5683548092993     
 total        electrons   67.5683548092993     
 total        electrons   67.5683548092993     
 total        electrons   67.5683548092993     
 total        electrons   67.5683548092993     
 total        electrons   67.5683548092993     
 charge-density read from file: hBN                                     
 magnetization density read from file 1
 entering main loop
       N       E                     dE             d eps       ncg     rms          rms(c)
DAV:   1    -0.294281208573E+03   -0.29428E+03   -0.30259E+02 24024   0.253E+01    0.557E-01
DAV:   2    -0.295659693960E+03   -0.13785E+01   -0.14985E+01 23088   0.663E+00    0.223E-01
DAV:   3    -0.295733427235E+03   -0.73733E-01   -0.29046E-01 24720   0.107E+00    0.283E-01
DAV:   4    -0.295770879188E+03   -0.37452E-01   -0.16394E-02 23472   0.240E-01    0.716E-02
DAV:   5    -0.295780633688E+03   -0.97545E-02   -0.14712E-03 25200   0.727E-02    0.390E-02
DAV:   6    -0.295782007792E+03   -0.13741E-02   -0.48367E-04 22464   0.358E-02    0.236E-02
DAV:   7    -0.295780862447E+03    0.11453E-02   -0.11952E-03 21720   0.409E-02    0.758E-03
DAV:   8    -0.295780847869E+03    0.14578E-04   -0.94334E-05 24240   0.136E-02    0.681E-03
DAV:   9    -0.295781926428E+03   -0.10786E-02   -0.19854E-04 22104   0.167E-02    0.467E-03
DAV:  10    -0.295782461159E+03   -0.53473E-03   -0.23673E-04 21720   0.162E-02    0.329E-03
DAV:  11    -0.295782834088E+03   -0.37293E-03   -0.15253E-04 21624   0.131E-02    0.191E-03
DAV:  12    -0.295782923691E+03   -0.89603E-04   -0.59378E-06 21432   0.348E-03    0.127E-03
DAV:  13    -0.295783197040E+03   -0.27335E-03   -0.33218E-05 19488   0.618E-03    0.783E-04
DAV:  14    -0.295783271682E+03   -0.74642E-04   -0.60181E-06 20736   0.293E-03    0.390E-04
DAV:  15    -0.295783336796E+03   -0.65114E-04   -0.55930E-06 19944   0.247E-03    0.244E-04
DAV:  16    -0.295783377175E+03   -0.40379E-04   -0.37478E-06 20280   0.176E-03    0.137E-04
DAV:  17    -0.295783385367E+03   -0.81924E-05    0.12723E-08 19416   0.434E-04    0.229E-04
DAV:  18    -0.295783391287E+03   -0.59191E-05    0.11994E-07 18312   0.279E-04    0.966E-05
DAV:  19    -0.295783396797E+03   -0.55109E-05    0.10384E-07 18072   0.243E-04    0.595E-05
DAV:  20    -0.295783399842E+03   -0.30441E-05    0.43531E-08 18504   0.260E-04    0.315E-05
DAV:  21    -0.295783401073E+03   -0.12315E-05    0.11627E-07 18912   0.159E-04    0.240E-05
DAV:  22    -0.295783401886E+03   -0.81326E-06    0.13782E-07 18288   0.892E-05
   1 F= -.29578340E+03 E0= -.29577535E+03  d E =-.160966E-01  mag=    -0.2871
 writing wavefunctions
 augmentation electrons   7.56030907040861     
 augmentation electrons   7.56030907040861     
 augmentation electrons   7.56030907040861     
 augmentation electrons   7.56030907040861     
 augmentation electrons   7.56030907040861     
 soft         electrons   127.438849232586     
 augmentation electrons   7.56030907040861     
 soft         electrons   127.438849232586     
 augmentation electrons   7.56030907040861     
 soft         electrons   127.438849232586     
 augmentation electrons   7.56030907040861     
 augmentation electrons   7.56030907040861     
 augmentation electrons   7.56030907040861     
 soft         electrons   127.438849232586     
 augmentation electrons   7.56030907040861     
 soft         electrons   127.438849232586     
 soft         electrons   127.438849232586     
 augmentation electrons   7.56030907040861     
 soft         electrons   127.438849232586     
 augmentation electrons   7.56030907040861     
 soft         electrons   127.438849232586     
 augmentation electrons   7.56030907040861     
 augmentation electrons   7.56030907040861     
 soft         electrons   127.438849232586     
 augmentation electrons   7.56030907040861     
 soft         electrons   127.438849232586     
 soft         electrons   127.438849232586     
 soft         electrons   127.438849232586     
 soft         electrons   127.438849232586     
 soft         electrons   127.438849232586     
 augmentation electrons   7.56030907040861     
 augmentation electrons   7.56030907040861     
 soft         electrons   127.438849232586     
 soft         electrons   127.438849232586     
 augmentation electrons   7.56030907040861     
 augmentation electrons   7.56030907040861     
 soft         electrons   127.438849232586     
 augmentation electrons   7.56030907040861     
 soft         electrons   127.438849232586     
 soft         electrons   127.438849232586     
 soft         electrons   127.438849232586     
 soft         electrons   127.438849232586     
 augmentation electrons   7.56030907040861     
 soft         electrons   127.438849232586     
 augmentation electrons   7.56030907040861     
 soft         electrons   127.438849232586     
 augmentation electrons   7.56030907040861     
 soft         electrons   127.438849232586     
 total        electrons   134.999158302995     
 total        electrons   134.999158302995     
 total        electrons   134.999158302995     
 total        electrons   134.999158302995     
 total        electrons   134.999158302995     
 total        electrons   134.999158302995     
 total        electrons   134.999158302995     
 total        electrons   134.999158302995     
 total        electrons   134.999158302995     
 total        electrons   134.999158302995     
 total        electrons   134.999158302995     
 total        electrons   134.999158302995     
 total        electrons   134.999158302995     
 total        electrons   134.999158302995     
 total        electrons   134.999158302995     
 total        electrons   134.999158302995     
 total        electrons   134.999158302995     
 total        electrons   134.999158302995     
 total        electrons   134.999158302995     
 total        electrons   134.999158302995     
 total        electrons   134.999158302995     
 total        electrons   134.999158302995     
 total        electrons   134.999158302995     
 total        electrons   134.999158302995     
 augmentation electrons  4.970937335075948E-004
 augmentation electrons  4.970937335075948E-004
 augmentation electrons  4.970937335075948E-004
 soft         electrons   127.438849232586     
 augmentation electrons  4.970937335075948E-004
 augmentation electrons  4.970937335075948E-004
 augmentation electrons  4.970937335075948E-004
 augmentation electrons  4.970937335075948E-004
 soft         electrons   127.438849232586     
 augmentation electrons  4.970937335075948E-004
 soft         electrons   127.438849232586     
 augmentation electrons  4.970937335075948E-004
 augmentation electrons  4.970937335075948E-004
 soft         electrons   127.438849232586     
 augmentation electrons  4.970937335075948E-004
 soft         electrons   127.438849232586     
 augmentation electrons  4.970937335075948E-004
 augmentation electrons  4.970937335075948E-004
 soft         electrons   127.438849232586     
 soft         electrons   127.438849232586     
 augmentation electrons  4.970937335075948E-004
 soft         electrons   127.438849232586     
 soft         electrons   127.438849232586     
 augmentation electrons  4.970937335075948E-004
 soft         electrons   127.438849232586     
 augmentation electrons  4.970937335075948E-004
 soft         electrons   127.438849232586     
 augmentation electrons  4.970937335075948E-004
 soft         electrons   127.438849232586     
 soft         electrons   127.438849232586     
 augmentation electrons  4.970937335075948E-004
 soft         electrons   127.438849232586     
 augmentation electrons  4.970937335075948E-004
 soft         electrons   127.438849232586     
 augmentation electrons  4.970937335075948E-004
 soft         electrons   127.438849232586     
 soft         electrons   127.438849232586     
 soft         electrons   127.438849232586     
 augmentation electrons  4.970937335075948E-004
 augmentation electrons  4.970937335075948E-004
 soft         electrons   127.438849232586     
 soft         electrons   127.438849232586     
 augmentation electrons  4.970937335075948E-004
 soft         electrons   127.438849232586     
 soft         electrons   127.438849232586     
 augmentation electrons  4.970937335075948E-004
 soft         electrons   127.438849232586     
 soft         electrons   127.438849232586     
 total        electrons -0.287262381355120     
 total        electrons -0.287262381355120     
 total        electrons -0.287262381355120     
 total        electrons -0.287262381355120     
 total        electrons -0.287262381355120     
 total        electrons -0.287262381355120     
 total        electrons -0.287262381355120     
 total        electrons -0.287262381355120     
 total        electrons -0.287262381355120     
 total        electrons -0.287262381355120     
 total        electrons -0.287262381355120     
 total        electrons -0.287262381355120     
 total        electrons -0.287262381355120     
 total        electrons -0.287262381355120     
 total        electrons -0.287262381355120     
 total        electrons -0.287262381355120     
 total        electrons -0.287262381355120     
 total        electrons -0.287262381355120     
 total        electrons -0.287262381355120     
 total        electrons -0.287262381355120     
 total        electrons -0.287262381355120     
 total        electrons -0.287262381355120     
 total        electrons -0.287262381355120     
 total        electrons -0.287262381355120     
Job  /jobmgr/lsf8.0/8.0/linux2.6-glibc2.3-x86_64/bin/intelmpi_wrapper -np 24 /home/xuzp/bin/vasp.5.4.4.std

TID   HOST_NAME   COMMAND_LINE            STATUS            TERMINATION_TIME
===== ========== ================  =======================  ===================
00000 c19b18     /home/xuzp/bin/v  Done                     07/30/2019 00:29:50
00001 c19b18     /home/xuzp/bin/v  Done                     07/30/2019 00:29:50
00002 c19b18     /home/xuzp/bin/v  Done                     07/30/2019 00:29:50
00003 c19b18     /home/xuzp/bin/v  Done                     07/30/2019 00:29:50
00004 c19b18     /home/xuzp/bin/v  Done                     07/30/2019 00:29:50
00005 c19b18     /home/xuzp/bin/v  Done                     07/30/2019 00:29:50
00006 c19b18     /home/xuzp/bin/v  Done                     07/30/2019 00:29:50
00007 c19b18     /home/xuzp/bin/v  Done                     07/30/2019 00:29:50
00008 c19b18     /home/xuzp/bin/v  Done                     07/30/2019 00:29:50
00009 c19b18     /home/xuzp/bin/v  Done                     07/30/2019 00:29:50
00010 c19b18     /home/xuzp/bin/v  Done                     07/30/2019 00:29:50
00011 c19b18     /home/xuzp/bin/v  Done                     07/30/2019 00:29:50
00012 c15b12     /home/xuzp/bin/v  Done                     07/30/2019 00:31:41
00013 c15b12     /home/xuzp/bin/v  Done                     07/30/2019 00:31:41
00014 c15b12     /home/xuzp/bin/v  Done                     07/30/2019 00:31:41
00015 c15b12     /home/xuzp/bin/v  Done                     07/30/2019 00:31:41
00016 c15b12     /home/xuzp/bin/v  Done                     07/30/2019 00:31:41
00017 c15b12     /home/xuzp/bin/v  Done                     07/30/2019 00:31:41
00018 c15b12     /home/xuzp/bin/v  Done                     07/30/2019 00:31:41
00019 c15b12     /home/xuzp/bin/v  Done                     07/30/2019 00:31:41
00020 c15b12     /home/xuzp/bin/v  Done                     07/30/2019 00:31:41
00021 c15b12     /home/xuzp/bin/v  Done                     07/30/2019 00:31:41
00022 c15b12     /home/xuzp/bin/v  Done                     07/30/2019 00:31:41
00023 c15b12     /home/xuzp/bin/v  Done                     07/30/2019 00:31:41
