 running on   24 total cores
 distrk:  each k-point on   24 cores,    1 groups
 distr:  one band on    1 cores,   24 groups
 using from now: INCAR     
 vasp.5.4.4.18Apr17-6-g9f103f2a35 (build Apr 11 2019 18:12:45) complex          
  
 POSCAR found type information on POSCAR  C  Na
 POSCAR found :  2 types and      33 ions
 scaLAPACK will be used

 ----------------------------------------------------------------------------- 
|                                                                             |
|           W    W    AA    RRRRR   N    N  II  N    N   GGGG   !!!           |
|           W    W   A  A   R    R  NN   N  II  NN   N  G    G  !!!           |
|           W    W  A    A  R    R  N N  N  II  N N  N  G       !!!           |
|           W WW W  AAAAAA  RRRRR   N  N N  II  N  N N  G  GGG   !            |
|           WW  WW  A    A  R   R   N   NN  II  N   NN  G    G                |
|           W    W  A    A  R    R  N    N  II  N    N   GGGG   !!!           |
|                                                                             |
|      For optimal performance we recommend to set                            |
|        NCORE= 4 - approx SQRT( number of cores)                             |
|      NCORE specifies how many cores store one orbital (NPAR=cpu/NCORE).     |
|      This setting can  greatly improve the performance of VASP for DFT.     |
|      The default,   NCORE=1            might be grossly inefficient         |
|      on modern multi-core architectures or massively parallel machines.     |
|      Do your own testing !!!!                                               |
|      Unfortunately you need to use the default for GW and RPA calculations. |
|      (for HF NCORE is supported but not extensively tested yet)             |
|                                                                             |
 ----------------------------------------------------------------------------- 

 LDA part: xc-table for Pade appr. of Perdew
 found WAVECAR, reading the header
  number of k-points has changed, file:    41 present:   265
  trying to continue reading WAVECAR, but it might fail
 WARNING: stress and forces are not correct
 POSCAR, INCAR and KPOINTS ok, starting setup
 FFT: planning ...
 reading WAVECAR
 the WAVECAR file was read successfully
 charge-density read from file: graphene_metal                          
 magnetization density read from file 1
 entering main loop
       N       E                     dE             d eps       ncg     rms          rms(c)
DAV:   1    -0.294975745040E+03   -0.29498E+03   -0.30947E+02156240   0.254E+01
DAV:   2    -0.295784597846E+03   -0.80885E+00   -0.80826E+00156432   0.580E+00
DAV:   3    -0.295801931760E+03   -0.17334E-01   -0.17331E-01184584   0.881E-01
DAV:   4    -0.295802629920E+03   -0.69816E-03   -0.69812E-03183936   0.146E-01
DAV:   5    -0.295802641524E+03   -0.11604E-04   -0.11602E-04201984   0.175E-02
DAV:   6    -0.295802641842E+03   -0.31720E-06   -0.31578E-06166488   0.217E-03
   1 F= -.29580264E+03 E0= -.29578623E+03  d E =-.328176E-01  mag=    -0.2871
 writing wavefunctions
Job  /jobmgr/lsf8.0/8.0/linux2.6-glibc2.3-x86_64/bin/intelmpi_wrapper -np 24 /home/xuzp/bin/vasp.5.4.4.std

TID   HOST_NAME   COMMAND_LINE            STATUS            TERMINATION_TIME
===== ========== ================  =======================  ===================
00000 c07b18     /home/xuzp/bin/v  Done                     08/02/2019 14:35:17
00001 c07b18     /home/xuzp/bin/v  Done                     08/02/2019 14:35:17
00002 c07b18     /home/xuzp/bin/v  Done                     08/02/2019 14:35:17
00003 c07b18     /home/xuzp/bin/v  Done                     08/02/2019 14:35:17
00004 c07b18     /home/xuzp/bin/v  Done                     08/02/2019 14:35:17
00005 c07b18     /home/xuzp/bin/v  Done                     08/02/2019 14:35:17
00006 c07b18     /home/xuzp/bin/v  Done                     08/02/2019 14:35:17
00007 c07b18     /home/xuzp/bin/v  Done                     08/02/2019 14:35:17
00008 c07b18     /home/xuzp/bin/v  Done                     08/02/2019 14:35:17
00009 c07b18     /home/xuzp/bin/v  Done                     08/02/2019 14:35:17
00010 c07b18     /home/xuzp/bin/v  Done                     08/02/2019 14:35:17
00011 c07b18     /home/xuzp/bin/v  Done                     08/02/2019 14:35:17
00012 c24b01     /home/xuzp/bin/v  Done                     08/02/2019 14:31:32
00013 c24b01     /home/xuzp/bin/v  Done                     08/02/2019 14:31:32
00014 c24b01     /home/xuzp/bin/v  Done                     08/02/2019 14:31:32
00015 c24b01     /home/xuzp/bin/v  Done                     08/02/2019 14:31:32
00016 c24b01     /home/xuzp/bin/v  Done                     08/02/2019 14:31:32
00017 c24b01     /home/xuzp/bin/v  Done                     08/02/2019 14:31:32
00018 c24b01     /home/xuzp/bin/v  Done                     08/02/2019 14:31:32
00019 c24b01     /home/xuzp/bin/v  Done                     08/02/2019 14:31:32
00020 c24b01     /home/xuzp/bin/v  Done                     08/02/2019 14:31:32
00021 c24b01     /home/xuzp/bin/v  Done                     08/02/2019 14:31:32
00022 c24b01     /home/xuzp/bin/v  Done                     08/02/2019 14:31:32
00023 c24b01     /home/xuzp/bin/v  Done                     08/02/2019 14:31:32
