 vasp.5.4.4.18Apr17-6-g9f103f2a35 (build Apr 11 2019 18:12:45) complex          
  
 executed on             LinuxIFC date 2019.08.28  15:19:34
 running on   24 total cores
 distrk:  each k-point on   24 cores,    1 groups
 distr:  one band on NCORES_PER_BAND=   1 cores,   24 groups


--------------------------------------------------------------------------------------------------------


 INCAR:
 POTCAR:   PAW_PBE C 08Apr2002                    
 POTCAR:    PAW_PBE Na_pv 19Sep2006               

 ----------------------------------------------------------------------------- 
|                                                                             |
|           W    W    AA    RRRRR   N    N  II  N    N   GGGG   !!!           |
|           W    W   A  A   R    R  NN   N  II  NN   N  G    G  !!!           |
|           W    W  A    A  R    R  N N  N  II  N N  N  G       !!!           |
|           W WW W  AAAAAA  RRRRR   N  N N  II  N  N N  G  GGG   !            |
|           WW  WW  A    A  R   R   N   NN  II  N   NN  G    G                |
|           W    W  A    A  R    R  N    N  II  N    N   GGGG   !!!           |
|                                                                             |
|      For optimal performance we recommend to set                            |
|        NCORE= 4 - approx SQRT( number of cores)                             |
|      NCORE specifies how many cores store one orbital (NPAR=cpu/NCORE).     |
|      This setting can  greatly improve the performance of VASP for DFT.     |
|      The default,   NCORE=1            might be grossly inefficient         |
|      on modern multi-core architectures or massively parallel machines.     |
|      Do your own testing !!!!                                               |
|      Unfortunately you need to use the default for GW and RPA calculations. |
|      (for HF NCORE is supported but not extensively tested yet)             |
|                                                                             |
 ----------------------------------------------------------------------------- 

 POTCAR:   PAW_PBE C 08Apr2002                    
   VRHFIN =C: s2p2                                                              
   LEXCH  = PE                                                                  
   EATOM  =   147.1560 eV,   10.8157 Ry                                         
                                                                                
   TITEL  = PAW_PBE C 08Apr2002                                                 
   LULTRA =        F    use ultrasoft PP ?                                      
   IUNSCR =        0    unscreen: 0-lin 1-nonlin 2-no                           
   RPACOR =     .000    partial core radius                                     
   POMASS =   12.011; ZVAL   =    4.000    mass and valenz                      
   RCORE  =    1.500    outmost cutoff radius                                   
   RWIGS  =    1.630; RWIGS  =     .863    wigner-seitz radius (au A)           
   ENMAX  =  400.000; ENMIN  =  300.000 eV                                      
   ICORE  =        2    local potential                                         
   LCOR   =        T    correct aug charges                                     
   LPAW   =        T    paw PP                                                  
   EAUG   =  644.873                                                            
   DEXC   =     .000                                                            
   RMAX   =    2.266    core radius for proj-oper                               
   RAUG   =    1.300    factor for augmentation sphere                          
   RDEP   =    1.501    radius for radial grids                                 
   RDEPT  =    1.300    core radius for aug-charge                              
   QCUT   =   -5.516; QGAM   =   11.032    optimization parameters              
                                                                                
   Description                                                                  
     l     E      TYP  RCUT    TYP  RCUT                                        
     0   .000     23  1.200                                                     
     0   .000     23  1.200                                                     
     1   .000     23  1.500                                                     
     1  2.500     23  1.500                                                     
     2   .000      7  1.500                                                     
  local pseudopotential read in
  atomic valenz-charges read in
  non local Contribution for L=           0  read in
    real space projection operators read in
  non local Contribution for L=           0  read in
    real space projection operators read in
  non local Contribution for L=           1  read in
    real space projection operators read in
  non local Contribution for L=           1  read in
    real space projection operators read in
    PAW grid and wavefunctions read in
 
   number of l-projection  operators is LMAX  =           4
   number of lm-projection operators is LMMAX =           8
 
 POTCAR:    PAW_PBE Na_pv 19Sep2006               
   VRHFIN =Na: p6s1                                                             
   LEXCH  = PE                                                                  
   EATOM  =   766.0439 eV,   56.3026 Ry                                         
                                                                                
   TITEL  = PAW_PBE Na_pv 19Sep2006                                             
   LULTRA =        F    use ultrasoft PP ?                                      
   IUNSCR =        1    unscreen: 0-lin 1-nonlin 2-no                           
   RPACOR =    1.800    partial core radius                                     
   POMASS =   22.990; ZVAL   =    7.000    mass and valenz                      
   RCORE  =    2.200    outmost cutoff radius                                   
   RWIGS  =    2.200; RWIGS  =    1.164    wigner-seitz radius (au A)           
   ENMAX  =  259.561; ENMIN  =  194.671 eV                                      
   ICORE  =        2    local potential                                         
   LCOR   =        T    correct aug charges                                     
   LPAW   =        T    paw PP                                                  
   EAUG   =  368.056                                                            
   DEXC   =     .000                                                            
   RMAX   =    2.862    core radius for proj-oper                               
   RAUG   =    1.300    factor for augmentation sphere                          
   RDEP   =    2.259    radius for radial grids                                 
   QCUT   =   -4.368; QGAM   =    8.735    optimization parameters              
                                                                                
   Description                                                                  
     l     E      TYP  RCUT    TYP  RCUT                                        
     1   .000     23  2.000                                                     
     1   .500     23  2.000                                                     
     0   .000     23  2.200                                                     
     0  2.500     23  2.200                                                     
     2  -.100     23  2.200                                                     
  local pseudopotential read in
  partial core-charges read in
  atomic valenz-charges read in
  non local Contribution for L=           1  read in
    real space projection operators read in
  non local Contribution for L=           1  read in
    real space projection operators read in
  non local Contribution for L=           0  read in
    real space projection operators read in
  non local Contribution for L=           0  read in
    real space projection operators read in
    PAW grid and wavefunctions read in
 
   number of l-projection  operators is LMAX  =           4
   number of lm-projection operators is LMMAX =           8
 
 Optimization of the real space projectors (new method)

 maximal supplied QI-value         = 25.13
 optimisation between [QCUT,QGAM] = [ 11.31, 28.40] = [ 35.82,225.87] Ry 
 Optimized for a Real-space Cutoff    0.93 Angstroem

   l    n(q)    QCUT    max X(q) W(low)/X(q) W(high)/X(q)  e(spline) 
   0      8    11.310     5.582    0.36E-04    0.13E-04    0.14E-07
   0      8    11.310    69.432    0.28E-03    0.21E-03    0.11E-06
   1      7    11.310     2.780    0.37E-04    0.49E-04    0.22E-07
   1      7    11.310     4.549    0.27E-03    0.38E-03    0.91E-07
 Optimization of the real space projectors (new method)

 maximal supplied QI-value         = 17.01
 optimisation between [QCUT,QGAM] = [ 11.40, 28.57] = [ 36.36,228.61] Ry 
 Optimized for a Real-space Cutoff    1.25 Angstroem

   l    n(q)    QCUT    max X(q) W(low)/X(q) W(high)/X(q)  e(spline) 
   1     10    11.395     4.977    0.23E-05    0.17E-05    0.20E-07
   1     10    11.395     7.312    0.34E-03    0.16E-03    0.87E-06
   0     11    11.395    36.258    0.15E-04    0.97E-06    0.30E-07
   0     11    11.395    45.649    0.12E-04    0.89E-05    0.80E-07
 PAW_PBE C 08Apr2002                    :
 energy of atom  1       EATOM= -147.1560
 kinetic energy error for atom=    0.0076 (will be added to EATOM!!)
  PAW_PBE Na_pv 19Sep2006               :
 energy of atom  2       EATOM= -766.0439
 kinetic energy error for atom=    0.0021 (will be added to EATOM!!)
 
 
 POSCAR: graphene+Na                             
  positions in direct lattice
  velocities in cartesian coordinates
 exchange correlation table for  LEXCH =        8
   RHO(1)=    0.500       N(1)  =     2000
   RHO(2)=  100.500       N(2)  =     4000
 


--------------------------------------------------------------------------------------------------------


 ion  position               nearest neighbor table
   1  0.166  0.083  0.500-  29 1.42  18 1.42  17 1.43
   2  0.417  0.083  0.500-  30 1.42  18 1.42  19 1.43
   3  0.667  0.083  0.500-  19 1.42  31 1.42  20 1.42
   4  0.917  0.083  0.500-  17 1.42  32 1.42  20 1.42
   5  0.166  0.333  0.500-  17 1.42  21 1.42  22 1.43
   6  0.416  0.333  0.499-  18 1.43  22 1.43  23 1.43
   7  0.667  0.333  0.500-  24 1.42  19 1.42  23 1.43
   8  0.917  0.333  0.500-  24 1.42  21 1.42  20 1.42
   9  0.166  0.583  0.500-  25 1.42  26 1.42  21 1.43
  10  0.416  0.584  0.499-  26 1.43  27 1.43  22 1.43
  11  0.667  0.584  0.499-  28 1.43  27 1.43  23 1.43
  12  0.917  0.583  0.500-  25 1.42  28 1.42  24 1.43
  13  0.167  0.833  0.500-  25 1.42  29 1.42  30 1.42
  14  0.417  0.834  0.500-  30 1.42  26 1.42  31 1.43
  15  0.667  0.834  0.500-  32 1.42  31 1.42  27 1.43
  16  0.917  0.834  0.500-  29 1.42  28 1.42  32 1.43
  17  0.083  0.166  0.500-   4 1.42   5 1.42   1 1.43
  18  0.333  0.166  0.500-   2 1.42   1 1.42   6 1.43
  19  0.583  0.166  0.500-   3 1.42   7 1.42   2 1.43
  20  0.833  0.167  0.500-   3 1.42   4 1.42   8 1.42
  21  0.083  0.417  0.500-   8 1.42   5 1.42   9 1.43
  22  0.333  0.416  0.499-   5 1.43   6 1.43  10 1.43
  23  0.584  0.416  0.499-   7 1.43  11 1.43   6 1.43
  24  0.834  0.417  0.500-   8 1.42   7 1.42  12 1.43
  25  0.083  0.667  0.500-   9 1.42  12 1.42  13 1.42
  26  0.333  0.667  0.500-  14 1.42   9 1.42  10 1.43
  27  0.584  0.667  0.499-  15 1.43  11 1.43  10 1.43
  28  0.834  0.667  0.500-  12 1.42  16 1.42  11 1.43
  29  0.083  0.917  0.500-   1 1.42  16 1.42  13 1.42
  30  0.333  0.917  0.500-  14 1.42   2 1.42  13 1.42
  31  0.583  0.917  0.500-   3 1.42  15 1.42  14 1.43
  32  0.834  0.917  0.500-   4 1.42  15 1.42  16 1.43
  33  0.500  0.500  0.615-
 
  LATTYP: Found a hexagonal cell.
 ALAT       =     9.8742351532
 C/A-ratio  =     2.0254733344
  
  Lattice vectors:
  
 A1 = (   9.8742351532,   0.0000000000,   0.0000000000)
 A2 = (  -4.9371175766,   8.5513384856,   0.0000000000)
 A3 = (   0.0000000000,   0.0000000000,  20.0000000000)


Analysis of symmetry for initial positions (statically):
=====================================================================
 Subroutine PRICEL returns:
 Original cell was already a primitive cell.
 

 Routine SETGRP: Setting up the symmetry group for a 
 hexagonal supercell.


 Subroutine GETGRP returns: Found  1 space group operations
 (whereof  1 operations were pure point group operations)
 out of a pool of 24 trial point group operations.


The static configuration has the point symmetry C_1 .


Analysis of symmetry for dynamics (positions and initial velocities):
=====================================================================
 Subroutine PRICEL returns:
 Original cell was already a primitive cell.
 

 Routine SETGRP: Setting up the symmetry group for a 
 hexagonal supercell.


 Subroutine GETGRP returns: Found  1 space group operations
 (whereof  1 operations were pure point group operations)
 out of a pool of 24 trial point group operations.


The dynamic configuration has the point symmetry C_1 .


Analysis of constrained symmetry for selective dynamics:
=====================================================================
 Subroutine PRICEL returns:
 Original cell was already a primitive cell.
 

 Routine SETGRP: Setting up the symmetry group for a 
 hexagonal supercell.


 Subroutine GETGRP returns: Found  1 space group operations
 (whereof  1 operations were pure point group operations)
 out of a pool of 24 trial point group operations.


The constrained configuration has the point symmetry C_1 .


Analysis of structural, dynamic, and magnetic symmetry:
=====================================================================
 Subroutine PRICEL returns:
 Original cell was already a primitive cell.
 

 Routine SETGRP: Setting up the symmetry group for a 
 hexagonal supercell.


 Subroutine GETGRP returns: Found  1 space group operations
 (whereof  1 operations were pure point group operations)
 out of a pool of 24 trial point group operations.


The magnetic configuration has the point symmetry C_1 .


 Subroutine INISYM returns: Found  1 space group operations
 (whereof  1 operations are pure point group operations),
 and found     1 'primitive' translations

 
 
 KPOINTS: K-Path Generated by VASPKIT.            
  interpolating k-points between supplied coordinates
  k-points in reciprocal lattice
Space group operators:
 irot       det(A)        alpha          n_x          n_y          n_z        tau_x        tau_y        tau_z
    1     1.000000     0.000000     1.000000     0.000000     0.000000     0.000000     0.000000     0.000000


--------------------------------------------------------------------------------------------------------




 Dimension of arrays:
   k-points           NKPTS =     60   k-points in BZ     NKDIM =     60   number of bands    NBANDS=    144
   number of dos      NEDOS =    301   number of ions     NIONS =     33
   non local maximal  LDIM  =      4   non local SUM 2l+1 LMDIM =      8
   total plane-waves  NPLWV = 777600
   max r-space proj   IRMAX =   3829   max aug-charges    IRDMAX=   5891
   dimension x,y,z NGX =    72 NGY =   72 NGZ =  150
   dimension x,y,z NGXF=   112 NGYF=  112 NGZF=  224
   support grid    NGXF=   112 NGYF=  112 NGZF=  224
   ions per type =              32   1
   NGX,Y,Z   is equivalent  to a cutoff of  12.12, 12.12, 12.47 a.u.
   NGXF,Y,Z  is equivalent  to a cutoff of  18.86, 18.86, 18.62 a.u.

 SYSTEM =  graphene_metal                          
 POSCAR =  graphene+Na                             

 Startparameter for this run:
   NWRITE =      2    write-flag & timer
   PREC   = high      normal or accurate (medium, high low for compatibility)
   ISTART =      1    job   : 0-new  1-cont  2-samecut
   ICHARG =     11    charge: 1-file 2-atom 10-const
   ISPIN  =      2    spin polarized calculation?
   LNONCOLLINEAR =      F non collinear calculations
   LSORBIT =      F    spin-orbit coupling
   INIWAV =      1    electr: 0-lowe 1-rand  2-diag
   LASPH  =      F    aspherical Exc in radial PAW
   METAGGA=      F    non-selfconsistent MetaGGA calc.

 Electronic Relaxation 1
   ENCUT  =  500.0 eV  36.75 Ry    6.06 a.u.  18.00 18.00 36.46*2*pi/ulx,y,z
   ENINI  =  500.0     initial cutoff
   ENAUG  =  644.9 eV  augmentation charge cutoff
   NELM   =    200;   NELMIN=  2; NELMDL=  0     # of ELM steps 
   EDIFF  = 0.1E-05   stopping-criterion for ELM
   LREAL  =      T    real-space projection
   NLSPLINE    = F    spline interpolate recip. space projectors
   LCOMPAT=      F    compatible to vasp.4.4
   GGA_COMPAT  = T    GGA compatible to vasp.4.4-vasp.4.6
   LMAXPAW     = -100 max onsite density
   LMAXMIX     =    2 max onsite mixed and CHGCAR
   VOSKOWN=      0    Vosko Wilk Nusair interpolation
   ROPT   =   -0.00040  -0.00040
 Ionic relaxation
   EDIFFG = 0.1E-04   stopping-criterion for IOM
   NSW    =      0    number of steps for IOM
   NBLOCK =      1;   KBLOCK =      1    inner block; outer block 
   IBRION =     -1    ionic relax: 0-MD 1-quasi-New 2-CG
   NFREE  =      0    steps in history (QN), initial steepest desc. (CG)
   ISIF   =      2    stress and relaxation
   IWAVPR =     10    prediction:  0-non 1-charg 2-wave 3-comb
   ISYM   =      2    0-nonsym 1-usesym 2-fastsym
   LCORR  =      T    Harris-Foulkes like correction to forces

   POTIM  = 0.5000    time-step for ionic-motion
   TEIN   =    0.0    initial temperature
   TEBEG  =    0.0;   TEEND  =   0.0 temperature during run
   SMASS  =  -3.00    Nose mass-parameter (am)
   estimated Nose-frequenzy (Omega)   =  0.10E-29 period in steps =****** mass=  -0.223E-26a.u.
   SCALEE = 1.0000    scale energy and forces
   NPACO  =    256;   APACO  = 16.0  distance and # of slots for P.C.
   PSTRESS=    0.0 pullay stress

  Mass of Ions in am
   POMASS =  12.01 22.99
  Ionic Valenz
   ZVAL   =   4.00  7.00
  Atomic Wigner-Seitz radii
   RWIGS  =  -1.00 -1.00
  virtual crystal weights 
   VCA    =   1.00  1.00
   NELECT =     135.0000    total number of electrons
   NUPDOWN=      -1.0000    fix difference up-down

 DOS related values:
   EMIN   =  10.00;   EMAX   =-10.00  energy-range for DOS
   EFERMI =   0.00
   ISMEAR =     0;   SIGMA  =   0.10  broadening in eV -4-tet -1-fermi 0-gaus

 Electronic relaxation 2 (details)
   IALGO  =     38    algorithm
   LDIAG  =      T    sub-space diagonalisation (order eigenvalues)
   LSUBROT=      F    optimize rotation matrix (better conditioning)
   TURBO    =      0    0=normal 1=particle mesh
   IRESTART =      0    0=no restart 2=restart with 2 vectors
   NREBOOT  =      0    no. of reboots
   NMIN     =      0    reboot dimension
   EREF     =   0.00    reference energy to select bands
   IMIX   =      4    mixing-type and parameters
     AMIX     =   0.40;   BMIX     =  1.00
     AMIX_MAG =   1.60;   BMIX_MAG =  1.00
     AMIN     =   0.10
     WC   =   100.;   INIMIX=   1;  MIXPRE=   1;  MAXMIX= -45

 Intra band minimization:
   WEIMIN = 0.0000     energy-eigenvalue tresh-hold
   EBREAK =  0.17E-08  absolut break condition
   DEPER  =   0.30     relativ break condition  

   TIME   =   0.40     timestep for ELM

  volume/ion in A,a.u.               =      51.17       345.34
  Fermi-wavevector in a.u.,A,eV,Ry     =   0.705229  1.332690  6.766832  0.497348
  Thomas-Fermi vector in A             =   1.790684
 
 Write flags
   LWAVE        =      T    write WAVECAR
   LDOWNSAMPLE  =      F    k-point downsampling of WAVECAR
   LCHARG       =      T    write CHGCAR
   LVTOT        =      F    write LOCPOT, total local potential
   LVHAR        =      F    write LOCPOT, Hartree potential only
   LELF         =      F    write electronic localiz. function (ELF)
   LORBIT       =     11    0 simple, 1 ext, 2 COOP (PROOUT), +10 PAW based schemes


 Dipole corrections
   LMONO  =      F    monopole corrections only (constant potential shift)
   LDIPOL =      T    correct potential (dipole corrections)
   IDIPOL =      3    1-x, 2-y, 3-z, 4-all directions 
   EPSILON=  1.0000000 bulk dielectric constant

 Exchange correlation treatment:
   GGA     =    --    GGA type
   LEXCH   =     8    internal setting for exchange type
   VOSKOWN=      0    Vosko Wilk Nusair interpolation
   LHFCALC =     F    Hartree Fock is set to
   LHFONE  =     F    Hartree Fock one center treatment
   AEXX    =    0.0000 exact exchange contribution

 Linear response parameters
   LEPSILON=     F    determine dielectric tensor
   LRPA    =     F    only Hartree local field effects (RPA)
   LNABLA  =     F    use nabla operator in PAW spheres
   LVEL    =     F    velocity operator in full k-point grid
   LINTERFAST=   F  fast interpolation
   KINTER  =     0    interpolate to denser k-point grid
   CSHIFT  =0.1000    complex shift for real part using Kramers Kronig
   OMEGAMAX=  -1.0    maximum frequency
   DEG_THRESHOLD= 0.2000000E-02 threshold for treating states as degnerate
   RTIME   =   -0.100 relaxation time in fs
  (WPLASMAI=    0.000 imaginary part of plasma frequency in eV, 0.658/RTIME)
   DFIELD  = 0.0000000 0.0000000 0.0000000 field for delta impulse in time
 
 Orbital magnetization related:
   ORBITALMAG=     F  switch on orbital magnetization
   LCHIMAG   =     F  perturbation theory with respect to B field
   DQ        =  0.001000  dq finite difference perturbation B field
   LLRAUG    =     F  two centre corrections for induced B field



--------------------------------------------------------------------------------------------------------


 Static calculation
 charge density and potential remain constant during run
 spin polarized calculation
 Variant of blocked Davidson
 Davidson routine will perform the subspace rotation
 perform sub-space diagonalisation
    after iterative eigenvector-optimisation
 no mixing
 using additional bands           76
 real space projection scheme for non local part
 use partial core corrections
 calculate Harris-corrections to forces 
   (improved forces if not selfconsistent)
 use gradient corrections 
 WARNING: stress and forces are not correct
  (second derivative of E(xc) not defined)
 use of overlap-Matrix (Vanderbilt PP)
 Gauss-broadening in eV      SIGMA  =   0.10


--------------------------------------------------------------------------------------------------------


  energy-cutoff  :      500.00
  volume of cell :     1688.76
      direct lattice vectors                 reciprocal lattice vectors
     9.874235153  0.000000000  0.000000000     0.101273667  0.058470379  0.000000000
    -4.937117577  8.551338486  0.000000000     0.000000000  0.116940757  0.000000000
     0.000000000  0.000000000 20.000000000     0.000000000  0.000000000  0.050000000

  length of vectors
     9.874235153  9.874235153 20.000000000     0.116940757  0.116940757  0.050000000


 
 old parameters found on file WAVECAR:
  energy-cutoff  :      500.00
  volume of cell :     1688.76
      direct lattice vectors                 reciprocal lattice vectors
     9.874235153  0.000000000  0.000000000     0.101273667  0.058470379  0.000000000
    -4.937117577  8.551338486  0.000000000     0.000000000  0.116940757  0.000000000
     0.000000000  0.000000000 20.000000000     0.000000000  0.000000000  0.050000000

  length of vectors

 
 k-points in units of 2pi/SCALE and weight: K-Path Generated by VASPKIT.            
   0.00000000  0.00000000  0.00000000       0.017
   0.00266510  0.00153869  0.00000000       0.017
   0.00533019  0.00307739  0.00000000       0.017
   0.00799529  0.00461608  0.00000000       0.017
   0.01066039  0.00615478  0.00000000       0.017
   0.01332548  0.00769347  0.00000000       0.017
   0.01599058  0.00923217  0.00000000       0.017
   0.01865568  0.01077086  0.00000000       0.017
   0.02132077  0.01230955  0.00000000       0.017
   0.02398587  0.01384825  0.00000000       0.017
   0.02665096  0.01538694  0.00000000       0.017
   0.02931606  0.01692564  0.00000000       0.017
   0.03198116  0.01846433  0.00000000       0.017
   0.03464625  0.02000302  0.00000000       0.017
   0.03731135  0.02154172  0.00000000       0.017
   0.03997645  0.02308041  0.00000000       0.017
   0.04264154  0.02461911  0.00000000       0.017
   0.04530664  0.02615780  0.00000000       0.017
   0.04797174  0.02769650  0.00000000       0.017
   0.05063683  0.02923519  0.00000000       0.017
   0.05063683  0.02923519  0.00000000       0.017
   0.04974847  0.03077388  0.00000000       0.017
   0.04886010  0.03231258  0.00000000       0.017
   0.04797174  0.03385127  0.00000000       0.017
   0.04708337  0.03538997  0.00000000       0.017
   0.04619501  0.03692866  0.00000000       0.017
   0.04530664  0.03846735  0.00000000       0.017
   0.04441827  0.04000605  0.00000000       0.017
   0.04352991  0.04154474  0.00000000       0.017
   0.04264154  0.04308344  0.00000000       0.017
   0.04175318  0.04462213  0.00000000       0.017
   0.04086481  0.04616083  0.00000000       0.017
   0.03997645  0.04769952  0.00000000       0.017
   0.03908808  0.04923821  0.00000000       0.017
   0.03819972  0.05077691  0.00000000       0.017
   0.03731135  0.05231560  0.00000000       0.017
   0.03642299  0.05385430  0.00000000       0.017
   0.03553462  0.05539299  0.00000000       0.017
   0.03464625  0.05693168  0.00000000       0.017
   0.03375789  0.05847038  0.00000000       0.017
   0.03375789  0.05847038  0.00000000       0.017
   0.03198116  0.05539299  0.00000000       0.017
   0.03020443  0.05231560  0.00000000       0.017
   0.02842770  0.04923821  0.00000000       0.017
   0.02665096  0.04616083  0.00000000       0.017
   0.02487423  0.04308344  0.00000000       0.017
   0.02309750  0.04000605  0.00000000       0.017
   0.02132077  0.03692866  0.00000000       0.017
   0.01954404  0.03385127  0.00000000       0.017
   0.01776731  0.03077388  0.00000000       0.017
   0.01599058  0.02769650  0.00000000       0.017
   0.01421385  0.02461911  0.00000000       0.017
   0.01243712  0.02154172  0.00000000       0.017
   0.01066039  0.01846433  0.00000000       0.017
   0.00888365  0.01538694  0.00000000       0.017
   0.00710692  0.01230955  0.00000000       0.017
   0.00533019  0.00923217  0.00000000       0.017
   0.00355346  0.00615478  0.00000000       0.017
   0.00177673  0.00307739  0.00000000       0.017
   0.00000000  0.00000000  0.00000000       0.017
 
 k-points in reciprocal lattice and weights: K-Path Generated by VASPKIT.            
   0.00000000  0.00000000  0.00000000       0.017
   0.02631579  0.00000000  0.00000000       0.017
   0.05263158  0.00000000  0.00000000       0.017
   0.07894737  0.00000000  0.00000000       0.017
   0.10526316  0.00000000  0.00000000       0.017
   0.13157895  0.00000000  0.00000000       0.017
   0.15789474  0.00000000  0.00000000       0.017
   0.18421053  0.00000000  0.00000000       0.017
   0.21052632  0.00000000  0.00000000       0.017
   0.23684211  0.00000000  0.00000000       0.017
   0.26315789  0.00000000  0.00000000       0.017
   0.28947368  0.00000000  0.00000000       0.017
   0.31578947  0.00000000  0.00000000       0.017
   0.34210526  0.00000000  0.00000000       0.017
   0.36842105  0.00000000  0.00000000       0.017
   0.39473684  0.00000000  0.00000000       0.017
   0.42105263  0.00000000  0.00000000       0.017
   0.44736842  0.00000000  0.00000000       0.017
   0.47368421  0.00000000  0.00000000       0.017
   0.50000000  0.00000000  0.00000000       0.017
   0.50000000  0.00000000  0.00000000       0.017
   0.49122807  0.01754386  0.00000000       0.017
   0.48245614  0.03508772  0.00000000       0.017
   0.47368421  0.05263158  0.00000000       0.017
   0.46491228  0.07017544  0.00000000       0.017
   0.45614035  0.08771930  0.00000000       0.017
   0.44736842  0.10526316  0.00000000       0.017
   0.43859649  0.12280702  0.00000000       0.017
   0.42982456  0.14035088  0.00000000       0.017
   0.42105263  0.15789474  0.00000000       0.017
   0.41228070  0.17543860  0.00000000       0.017
   0.40350877  0.19298246  0.00000000       0.017
   0.39473684  0.21052632  0.00000000       0.017
   0.38596491  0.22807018  0.00000000       0.017
   0.37719298  0.24561404  0.00000000       0.017
   0.36842105  0.26315789  0.00000000       0.017
   0.35964912  0.28070175  0.00000000       0.017
   0.35087719  0.29824561  0.00000000       0.017
   0.34210526  0.31578947  0.00000000       0.017
   0.33333333  0.33333333  0.00000000       0.017
   0.33333333  0.33333333  0.00000000       0.017
   0.31578947  0.31578947  0.00000000       0.017
   0.29824561  0.29824561  0.00000000       0.017
   0.28070175  0.28070175  0.00000000       0.017
   0.26315789  0.26315789  0.00000000       0.017
   0.24561404  0.24561404  0.00000000       0.017
   0.22807018  0.22807018  0.00000000       0.017
   0.21052632  0.21052632  0.00000000       0.017
   0.19298246  0.19298246  0.00000000       0.017
   0.17543860  0.17543860  0.00000000       0.017
   0.15789474  0.15789474  0.00000000       0.017
   0.14035088  0.14035088  0.00000000       0.017
   0.12280702  0.12280702  0.00000000       0.017
   0.10526316  0.10526316  0.00000000       0.017
   0.08771930  0.08771930  0.00000000       0.017
   0.07017544  0.07017544  0.00000000       0.017
   0.05263158  0.05263158  0.00000000       0.017
   0.03508772  0.03508772  0.00000000       0.017
   0.01754386  0.01754386  0.00000000       0.017
   0.00000000  0.00000000  0.00000000       0.017
 
 position of ions in fractional coordinates (direct lattice) 
   0.16647518  0.08315087  0.50000000
   0.41667537  0.08315076  0.49997437
   0.66671650  0.08335870  0.50000000
   0.91664183  0.08335826  0.50008616
   0.16610479  0.33305197  0.49978934
   0.41637835  0.33275755  0.49915571
   0.66694816  0.33305189  0.50000000
   0.91664144  0.33328375  0.50010917
   0.16647517  0.58332486  0.49999609
   0.41637829  0.58362172  0.49918330
   0.66724248  0.58362164  0.49915816
   0.91684911  0.58332457  0.49997861
   0.16666649  0.83333333  0.50000057
   0.41667496  0.83352477  0.49998966
   0.66694814  0.83389548  0.49978569
   0.91684906  0.83352477  0.50000000
   0.08315010  0.16647490  0.50000000
   0.33305307  0.16610452  0.49977525
   0.58332426  0.16647545  0.50003825
   0.83333319  0.16666663  0.50003104
   0.08315065  0.41667550  0.50002052
   0.33275681  0.41637753  0.49916998
   0.58362013  0.41638001  0.49921548
   0.83352450  0.41667579  0.50006388
   0.08335882  0.66671700  0.50000000
   0.33305140  0.66694854  0.49979251
   0.58362234  0.66724286  0.49917347
   0.83389569  0.66694694  0.49977368
   0.08335836  0.91664160  0.50007978
   0.33328300  0.91664114  0.50000000
   0.58332475  0.91684964  0.49999068
   0.83352513  0.91684991  0.50000000
   0.50000000  0.50000000  0.61493496
 
 position of ions in cartesian coordinates  (Angst):
   1.23328951  0.71105121 10.00000000
   3.70382555  0.71105027  9.99948738
   6.17176375  0.71282850 10.00000000
   8.63958742  0.71282467 10.00172318
  -0.00415897  2.84804013  9.99578683
   2.46855454  2.84552248  9.98311429
   4.94128660  2.84803941 10.00000000
   7.40567214  2.85002212 10.00218346
  -1.23612840  4.98820832  9.99992172
   1.23000808  4.99074687  9.98366595
   3.70710049  4.99074623  9.98316313
   6.17324176  4.98820582  9.99957230
  -2.46856053  7.12611539 10.00001147
  -0.00086325  7.12775246  9.99979321
   2.46856271  7.13092251  9.99571371
   4.93797349  7.12775241 10.00000000
  -0.00086248  1.42358319 10.00000000
   2.46856680  1.42041601  9.99550506
   4.93797205  1.42358793 10.00076492
   7.40567514  1.42522273 10.00062070
  -1.23612688  3.56313323 10.00041033
   1.23001415  3.56058518  9.98339961
   3.70708538  3.56060636  9.98430964
   6.17323956  3.56313574 10.00127762
  -2.46855564  5.70132272 10.00000000
  -0.00417549  5.70330273  9.99585014
   2.46856781  5.70581955  9.98346948
   4.94128669  5.70328905  9.99547356
  -3.70246725  7.83851256 10.00159564
  -1.23465039  7.83850862 10.00000000
   1.23329130  7.84029160  9.99981369
   3.70382735  7.84029390 10.00000000
   2.46855879  4.27566924 12.29869923
 


--------------------------------------------------------------------------------------------------------


 k-point  1 :   0.0000 0.0000 0.0000  plane waves:   42745
 k-point  2 :   0.0263 0.0000 0.0000  plane waves:   42765
 k-point  3 :   0.0526 0.0000 0.0000  plane waves:   42771
 k-point  4 :   0.0789 0.0000 0.0000  plane waves:   42787
 k-point  5 :   0.1053 0.0000 0.0000  plane waves:   42797
 k-point  6 :   0.1316 0.0000 0.0000  plane waves:   42799
 k-point  7 :   0.1579 0.0000 0.0000  plane waves:   42805
 k-point  8 :   0.1842 0.0000 0.0000  plane waves:   42829
 k-point  9 :   0.2105 0.0000 0.0000  plane waves:   42841
 k-point 10 :   0.2368 0.0000 0.0000  plane waves:   42857
 k-point 11 :   0.2632 0.0000 0.0000  plane waves:   42889
 k-point 12 :   0.2895 0.0000 0.0000  plane waves:   42891
 k-point 13 :   0.3158 0.0000 0.0000  plane waves:   42893
 k-point 14 :   0.3421 0.0000 0.0000  plane waves:   42885
 k-point 15 :   0.3684 0.0000 0.0000  plane waves:   42863
 k-point 16 :   0.3947 0.0000 0.0000  plane waves:   42867
 k-point 17 :   0.4211 0.0000 0.0000  plane waves:   42888
 k-point 18 :   0.4474 0.0000 0.0000  plane waves:   42894
 k-point 19 :   0.4737 0.0000 0.0000  plane waves:   42870
 k-point 20 :   0.5000 0.0000 0.0000  plane waves:   42830
 k-point 21 :   0.5000 0.0000 0.0000  plane waves:   42830
 k-point 22 :   0.4912 0.0175 0.0000  plane waves:   42846
 k-point 23 :   0.4825 0.0351 0.0000  plane waves:   42850
 k-point 24 :   0.4737 0.0526 0.0000  plane waves:   42882
 k-point 25 :   0.4649 0.0702 0.0000  plane waves:   42874
 k-point 26 :   0.4561 0.0877 0.0000  plane waves:   42898
 k-point 27 :   0.4474 0.1053 0.0000  plane waves:   42904
 k-point 28 :   0.4386 0.1228 0.0000  plane waves:   42918
 k-point 29 :   0.4298 0.1404 0.0000  plane waves:   42892
 k-point 30 :   0.4211 0.1579 0.0000  plane waves:   42870
 k-point 31 :   0.4123 0.1754 0.0000  plane waves:   42872
 k-point 32 :   0.4035 0.1930 0.0000  plane waves:   42882
 k-point 33 :   0.3947 0.2105 0.0000  plane waves:   42902
 k-point 34 :   0.3860 0.2281 0.0000  plane waves:   42900
 k-point 35 :   0.3772 0.2456 0.0000  plane waves:   42888
 k-point 36 :   0.3684 0.2632 0.0000  plane waves:   42896
 k-point 37 :   0.3596 0.2807 0.0000  plane waves:   42886
 k-point 38 :   0.3509 0.2982 0.0000  plane waves:   42852
 k-point 39 :   0.3421 0.3158 0.0000  plane waves:   42852
 k-point 40 :   0.3333 0.3333 0.0000  plane waves:   42816
 k-point 41 :   0.3333 0.3333 0.0000  plane waves:   42816
 k-point 42 :   0.3158 0.3158 0.0000  plane waves:   42846
 k-point 43 :   0.2982 0.2982 0.0000  plane waves:   42886
 k-point 44 :   0.2807 0.2807 0.0000  plane waves:   42894
 k-point 45 :   0.2632 0.2632 0.0000  plane waves:   42912
 k-point 46 :   0.2456 0.2456 0.0000  plane waves:   42890
 k-point 47 :   0.2281 0.2281 0.0000  plane waves:   42884
 k-point 48 :   0.2105 0.2105 0.0000  plane waves:   42892
 k-point 49 :   0.1930 0.1930 0.0000  plane waves:   42906
 k-point 50 :   0.1754 0.1754 0.0000  plane waves:   42906
 k-point 51 :   0.1579 0.1579 0.0000  plane waves:   42886
 k-point 52 :   0.1404 0.1404 0.0000  plane waves:   42888
 k-point 53 :   0.1228 0.1228 0.0000  plane waves:   42900
 k-point 54 :   0.1053 0.1053 0.0000  plane waves:   42856
 k-point 55 :   0.0877 0.0877 0.0000  plane waves:   42820
 k-point 56 :   0.0702 0.0702 0.0000  plane waves:   42818
 k-point 57 :   0.0526 0.0526 0.0000  plane waves:   42792
 k-point 58 :   0.0351 0.0351 0.0000  plane waves:   42778
 k-point 59 :   0.0175 0.0175 0.0000  plane waves:   42782
 k-point 60 :   0.0000 0.0000 0.0000  plane waves:   42745

 maximum and minimum number of plane-waves per node :     42918    42745

 maximum number of plane-waves:     42918
 maximum index in each direction: 
   IXMAX=   18   IYMAX=   18   IZMAX=   36
   IXMIN=  -18   IYMIN=  -18   IZMIN=  -36


 serial   3D FFT for wavefunctions
 parallel 3D FFT for charge:
    minimum data exchange during FFTs selected (reduces bandwidth)


 total amount of memory used by VASP MPI-rank0   613667. kBytes
=======================================================================

   base      :      30000. kBytes
   nonlr-proj:       5794. kBytes
   fftplans  :       7527. kBytes
   grid      :      72480. kBytes
   one-center:        202. kBytes
   wavefun   :     497664. kBytes
 
     INWAV:  cpu time   49.0315: real time   49.1607
 initial charge density was supplied:
 number of electron     134.9999915 magnetization      -0.3429334
 keeping initial charge density in first step


--------------------------------------------------------------------------------------------------------


 Maximum index for non-local projection operator         3679
 Maximum index for augmentation-charges          188 (set IRDMAX)


--------------------------------------------------------------------------------------------------------


 First call to EWALD:  gamma=   0.149
 Maximum number of real-space cells 4x 4x 2
 Maximum number of reciprocal cells 2x 2x 4

    FEWALD:  cpu time    0.0030: real time    0.0023


--------------------------------------- Iteration      1(   1)  ---------------------------------------


    POTLOK:  cpu time    0.4069: real time    0.4180
    SETDIJ:  cpu time    0.0130: real time    0.0138
     EDDAV:  cpu time  370.8826: real time  371.6559
       DOS:  cpu time    0.0060: real time    0.0058
    --------------------------------------------
      LOOP:  cpu time  371.3086: real time  372.0936

 eigenvalue-minimisations  : 38856
 total energy-change (2. order) :-0.2938929E+03  (-0.4560739E+02)
 number of electron     134.9999915 magnetization      -0.3429334
 augmentation part      134.9999915 magnetization      -0.3429334

 DIPCOR: dipole corrections for dipol
 direction  3 min pos    17,
 dipolmoment           0.000000      0.000000     -0.482777 electrons x Angstroem
 Tr[quadrupol]     -2317.962891

 energy correction for charged system         0.000000 eV
 dipol+quadrupol energy correction           -0.012488 eV
 added-field ion interaction         -9.168297 eV  (added to PSCEN)


 Free energy of the ion-electron system (eV)
  ---------------------------------------------------
  alpha Z        PSCENC =        46.40963596
  Ewald energy   TEWEN  =     21840.33001928
  -Hartree energ DENC   =    -26391.18801231
  -exchange      EXHF   =         0.00000000
  -V(xc)+E(xc)   XCENC  =       485.48718494
  PAW double counting   =      2689.46459078    -2819.40133542
  entropy T*S    EENTRO =        -0.02269660
  eigenvalues    EBANDS =     -1619.76360328
  atomic energy  EATOM  =      5474.79130437
  Solvation  Ediel_sol  =         0.00000000
  ---------------------------------------------------
  free energy    TOTEN  =      -293.89291227 eV

  energy without entropy =     -293.87021567  energy(sigma->0) =     -293.88156397


--------------------------------------------------------------------------------------------------------




--------------------------------------- Iteration      1(   2)  ---------------------------------------


     EDDAV:  cpu time  385.8213: real time  386.4512
       DOS:  cpu time    0.0060: real time    0.0061
    --------------------------------------------
      LOOP:  cpu time  385.8283: real time  386.4573

 eigenvalue-minimisations  : 40848
 total energy-change (2. order) :-0.1905239E+01  (-0.1901017E+01)
 number of electron     134.9999915 magnetization      -0.3429334
 augmentation part      134.9999915 magnetization      -0.3429334

 DIPCOR: dipole corrections for dipol
 direction  3 min pos    17,
 dipolmoment           0.000000      0.000000     -0.482777 electrons x Angstroem
 Tr[quadrupol]     -2317.962891

 energy correction for charged system         0.000000 eV
 dipol+quadrupol energy correction           -0.012488 eV
 added-field ion interaction         -9.168297 eV  (added to PSCEN)


 Free energy of the ion-electron system (eV)
  ---------------------------------------------------
  alpha Z        PSCENC =        46.40963596
  Ewald energy   TEWEN  =     21840.33001928
  -Hartree energ DENC   =    -26391.18801231
  -exchange      EXHF   =         0.00000000
  -V(xc)+E(xc)   XCENC  =       485.48718494
  PAW double counting   =      2689.46459078    -2819.40133542
  entropy T*S    EENTRO =        -0.02054648
  eigenvalues    EBANDS =     -1621.67099247
  atomic energy  EATOM  =      5474.79130437
  Solvation  Ediel_sol  =         0.00000000
  ---------------------------------------------------
  free energy    TOTEN  =      -295.79815135 eV

  energy without entropy =     -295.77760487  energy(sigma->0) =     -295.78787811


--------------------------------------------------------------------------------------------------------




--------------------------------------- Iteration      1(   3)  ---------------------------------------


     EDDAV:  cpu time  461.9608: real time  462.5764
       DOS:  cpu time    0.0060: real time    0.0062
    --------------------------------------------
      LOOP:  cpu time  461.9658: real time  462.5826

 eigenvalue-minimisations  : 50880
 total energy-change (2. order) :-0.4736693E-01  (-0.4734126E-01)
 number of electron     134.9999915 magnetization      -0.3429334
 augmentation part      134.9999915 magnetization      -0.3429334

 DIPCOR: dipole corrections for dipol
 direction  3 min pos    17,
 dipolmoment           0.000000      0.000000     -0.482777 electrons x Angstroem
 Tr[quadrupol]     -2317.962891

 energy correction for charged system         0.000000 eV
 dipol+quadrupol energy correction           -0.012488 eV
 added-field ion interaction         -9.168297 eV  (added to PSCEN)


 Free energy of the ion-electron system (eV)
  ---------------------------------------------------
  alpha Z        PSCENC =        46.40963596
  Ewald energy   TEWEN  =     21840.33001928
  -Hartree energ DENC   =    -26391.18801231
  -exchange      EXHF   =         0.00000000
  -V(xc)+E(xc)   XCENC  =       485.48718494
  PAW double counting   =      2689.46459078    -2819.40133542
  entropy T*S    EENTRO =        -0.02048800
  eigenvalues    EBANDS =     -1621.71841789
  atomic energy  EATOM  =      5474.79130437
  Solvation  Ediel_sol  =         0.00000000
  ---------------------------------------------------
  free energy    TOTEN  =      -295.84551828 eV

  energy without entropy =     -295.82503029  energy(sigma->0) =     -295.83527429


--------------------------------------------------------------------------------------------------------




--------------------------------------- Iteration      1(   4)  ---------------------------------------


     EDDAV:  cpu time  459.9791: real time  460.2410
       DOS:  cpu time    0.0060: real time    0.0061
    --------------------------------------------
      LOOP:  cpu time  459.9861: real time  460.2471

 eigenvalue-minimisations  : 50664
 total energy-change (2. order) :-0.8726792E-03  (-0.8715488E-03)
 number of electron     134.9999915 magnetization      -0.3429334
 augmentation part      134.9999915 magnetization      -0.3429334

 DIPCOR: dipole corrections for dipol
 direction  3 min pos    17,
 dipolmoment           0.000000      0.000000     -0.482777 electrons x Angstroem
 Tr[quadrupol]     -2317.962891

 energy correction for charged system         0.000000 eV
 dipol+quadrupol energy correction           -0.012488 eV
 added-field ion interaction         -9.168297 eV  (added to PSCEN)


 Free energy of the ion-electron system (eV)
  ---------------------------------------------------
  alpha Z        PSCENC =        46.40963596
  Ewald energy   TEWEN  =     21840.33001928
  -Hartree energ DENC   =    -26391.18801231
  -exchange      EXHF   =         0.00000000
  -V(xc)+E(xc)   XCENC  =       485.48718494
  PAW double counting   =      2689.46459078    -2819.40133542
  entropy T*S    EENTRO =        -0.02048866
  eigenvalues    EBANDS =     -1621.71928991
  atomic energy  EATOM  =      5474.79130437
  Solvation  Ediel_sol  =         0.00000000
  ---------------------------------------------------
  free energy    TOTEN  =      -295.84639096 eV

  energy without entropy =     -295.82590230  energy(sigma->0) =     -295.83614663


--------------------------------------------------------------------------------------------------------




--------------------------------------- Iteration      1(   5)  ---------------------------------------


     EDDAV:  cpu time  462.9216: real time  463.1869
       DOS:  cpu time    0.0070: real time    0.0063
    --------------------------------------------
      LOOP:  cpu time  462.9276: real time  463.1932

 eigenvalue-minimisations  : 51168
 total energy-change (2. order) :-0.2103218E-04  (-0.2102524E-04)
 number of electron     134.9999915 magnetization      -0.3429334
 augmentation part      134.9999915 magnetization      -0.3429334

 DIPCOR: dipole corrections for dipol
 direction  3 min pos    17,
 dipolmoment           0.000000      0.000000     -0.482777 electrons x Angstroem
 Tr[quadrupol]     -2317.962891

 energy correction for charged system         0.000000 eV
 dipol+quadrupol energy correction           -0.012488 eV
 added-field ion interaction         -9.168297 eV  (added to PSCEN)


 Free energy of the ion-electron system (eV)
  ---------------------------------------------------
  alpha Z        PSCENC =        46.40963596
  Ewald energy   TEWEN  =     21840.33001928
  -Hartree energ DENC   =    -26391.18801231
  -exchange      EXHF   =         0.00000000
  -V(xc)+E(xc)   XCENC  =       485.48718494
  PAW double counting   =      2689.46459078    -2819.40133542
  entropy T*S    EENTRO =        -0.02048874
  eigenvalues    EBANDS =     -1621.71931086
  atomic energy  EATOM  =      5474.79130437
  Solvation  Ediel_sol  =         0.00000000
  ---------------------------------------------------
  free energy    TOTEN  =      -295.84641200 eV

  energy without entropy =     -295.82592326  energy(sigma->0) =     -295.83616763


--------------------------------------------------------------------------------------------------------




--------------------------------------- Iteration      1(   6)  ---------------------------------------


     EDDAV:  cpu time  460.3760: real time  460.6518
       DOS:  cpu time    0.0060: real time    0.0062
    --------------------------------------------
      LOOP:  cpu time  460.3820: real time  460.6579

 eigenvalue-minimisations  : 50616
 total energy-change (2. order) :-0.7044491E-06  (-0.7028368E-06)
 number of electron     134.9999915 magnetization      -0.3429334
 augmentation part      134.9999915 magnetization      -0.3429334

 DIPCOR: dipole corrections for dipol
 direction  3 min pos    17,
 dipolmoment           0.000000      0.000000     -0.482777 electrons x Angstroem
 Tr[quadrupol]     -2317.962891

 energy correction for charged system         0.000000 eV
 dipol+quadrupol energy correction           -0.012488 eV
 added-field ion interaction         -9.168297 eV  (added to PSCEN)


 Free energy of the ion-electron system (eV)
  ---------------------------------------------------
  alpha Z        PSCENC =        46.40963596
  Ewald energy   TEWEN  =     21840.33001928
  -Hartree energ DENC   =    -26391.18801231
  -exchange      EXHF   =         0.00000000
  -V(xc)+E(xc)   XCENC  =       485.48718494
  PAW double counting   =      2689.46459078    -2819.40133542
  entropy T*S    EENTRO =        -0.02048874
  eigenvalues    EBANDS =     -1621.71931156
  atomic energy  EATOM  =      5474.79130437
  Solvation  Ediel_sol  =         0.00000000
  ---------------------------------------------------
  free energy    TOTEN  =      -295.84641270 eV

  energy without entropy =     -295.82592396  energy(sigma->0) =     -295.83616833


--------------------------------------------------------------------------------------------------------




 average (electrostatic) potential at core
  the test charge radii are     0.6991  0.9254
  (the norm of the test charge is              1.0000)
       1 -57.5601       2 -57.5599       3 -57.5164       4 -57.5164       5 -57.6135
       6 -57.7747       7 -57.6134       8 -57.5164       9 -57.5600      10 -57.7748
      11 -57.7745      12 -57.5600      13 -57.5245      14 -57.5601      15 -57.6134
      16 -57.5601      17 -57.5601      18 -57.6133      19 -57.5601      20 -57.5244
      21 -57.5599      22 -57.7747      23 -57.7747      24 -57.5600      25 -57.5165
      26 -57.6135      27 -57.7747      28 -57.6133      29 -57.5164      30 -57.5163
      31 -57.5599      32 -57.5600      33 -53.8248
 
 
 
 E-fermi :  -1.3565     XC(G=0):  -2.3621     alpha+bet : -2.0736


 spin component 1

 k-point     1 :       0.0000    0.0000    0.0000
  band No.  band energies     occupation 
      1     -28.0024      1.00000
      2     -28.0024      1.00000
      3     -27.9947      1.00000
      4     -21.7095      1.00000
      5     -20.3430      1.00000
      6     -20.2667      1.00000
      7     -20.2667      1.00000
      8     -20.1908      1.00000
      9     -20.1907      1.00000
     10     -20.1640      1.00000
     11     -17.4481      1.00000
     12     -17.4480      1.00000
     13     -17.4224      1.00000
     14     -17.4223      1.00000
     15     -17.4111      1.00000
     16     -17.3809      1.00000
     17     -16.4662      1.00000
     18     -16.4661      1.00000
     19     -16.4563      1.00000
     20     -15.4222      1.00000
     21     -15.4092      1.00000
     22     -15.4091      1.00000
     23     -12.7366      1.00000
     24     -12.7365      1.00000
     25     -12.7263      1.00000
     26     -12.7263      1.00000
     27     -12.6890      1.00000
     28     -12.6835      1.00000
     29     -11.1803      1.00000
     30     -11.1726      1.00000
     31     -11.1104      1.00000
     32     -11.1104      1.00000
     33     -11.1038      1.00000
     34     -11.1038      1.00000
     35      -9.8993      1.00000
     36      -9.6295      1.00000
     37      -9.6294      1.00000
     38      -9.6276      1.00000
     39      -9.6027      1.00000
     40      -9.6026      1.00000
     41      -9.5784      1.00000
     42      -8.5927      1.00000
     43      -8.5925      1.00000
     44      -8.5859      1.00000
     45      -8.3408      1.00000
     46      -8.2014      1.00000
     47      -8.2011      1.00000
     48      -8.0654      1.00000
     49      -8.0653      1.00000
     50      -8.0306      1.00000
     51      -7.2467      1.00000
     52      -7.2409      1.00000
     53      -7.2409      1.00000
     54      -7.2121      1.00000
     55      -7.2120      1.00000
     56      -7.1910      1.00000
     57      -5.2169      1.00000
     58      -5.2168      1.00000
     59      -5.1042      1.00000
     60      -5.1039      1.00000
     61      -4.9942      1.00000
     62      -4.9939      1.00000
     63      -4.9620      1.00000
     64      -4.9107      1.00000
     65      -4.5838      1.00000
     66      -4.5826      1.00000
     67      -4.5826      1.00000
     68      -0.6404      0.00000
     69      -0.6213      0.00000
     70      -0.6211      0.00000
     71      -0.5676      0.00000
     72       0.5175      0.00000
     73       0.5178      0.00000
     74       0.5378      0.00000
     75       0.5378      0.00000
     76       0.6044      0.00000
     77       0.6400      0.00000
     78       1.3279      0.00000
     79       1.3817      0.00000
     80       1.6304      0.00000
     81       1.6324      0.00000
     82       1.7921      0.00000
     83       2.5099      0.00000
     84       2.5103      0.00000
     85       2.5829      0.00000
     86       2.6934      0.00000
     87       2.9605      0.00000
     88       3.3502      0.00000
     89       3.3975      0.00000
     90       3.3976      0.00000
     91       3.4654      0.00000
     92       3.4655      0.00000
     93       3.4827      0.00000
     94       3.5364      0.00000
     95       3.5589      0.00000
     96       3.5591      0.00000
     97       3.6564      0.00000
     98       3.6566      0.00000
     99       3.6943      0.00000
    100       4.3365      0.00000
    101       4.4879      0.00000
    102       4.4881      0.00000
    103       4.6189      0.00000
    104       4.6192      0.00000
    105       4.6528      0.00000
    106       4.6588      0.00000
    107       4.8995      0.00000
    108       4.9136      0.00000
    109       4.9778      0.00000
    110       4.9785      0.00000
    111       5.0403      0.00000
    112       5.0407      0.00000
    113       5.0673      0.00000
    114       5.0680      0.00000
    115       5.1003      0.00000
    116       5.1168      0.00000
    117       5.1201      0.00000
    118       5.1203      0.00000
    119       5.1681      0.00000
    120       5.1682      0.00000
    121       5.1928      0.00000
    122       5.3659      0.00000
    123       5.7160      0.00000
    124       5.7161      0.00000
    125       5.7851      0.00000
    126       5.7987      0.00000
    127       5.8006      0.00000
    128       5.8210      0.00000
    129       5.8212      0.00000
    130       5.8335      0.00000
    131       6.0062      0.00000
    132       6.0065      0.00000
    133       6.0305      0.00000
    134       6.3078      0.00000
    135       6.3149      0.00000
    136       6.4161      0.00000
    137       6.5172      0.00000
    138       6.5991      0.00000
    139       6.5994      0.00000
    140       6.7815      0.00000
    141       6.7815      0.00000
    142       6.8177      0.00000
    143       7.0229      0.00000
    144       7.1850      0.00000

 k-point     2 :       0.0263    0.0000    0.0000
  band No.  band energies     occupation 
      1     -28.0024      1.00000
      2     -28.0024      1.00000
      3     -27.9947      1.00000
      4     -21.7085      1.00000
      5     -20.3718      1.00000
      6     -20.2816      1.00000
      7     -20.2626      1.00000
      8     -20.2096      1.00000
      9     -20.1739      1.00000
     10     -20.1165      1.00000
     11     -17.5387      1.00000
     12     -17.5239      1.00000
     13     -17.4245      1.00000
     14     -17.4177      1.00000
     15     -17.3227      1.00000
     16     -17.3007      1.00000
     17     -16.4828      1.00000
     18     -16.4702      1.00000
     19     -16.4626      1.00000
     20     -15.4138      1.00000
     21     -15.4034      1.00000
     22     -15.3912      1.00000
     23     -12.8191      1.00000
     24     -12.8181      1.00000
     25     -12.7285      1.00000
     26     -12.7205      1.00000
     27     -12.6189      1.00000
     28     -12.6175      1.00000
     29     -11.2300      1.00000
     30     -11.2247      1.00000
     31     -11.1212      1.00000
     32     -11.1203      1.00000
     33     -11.0294      1.00000
     34     -11.0260      1.00000
     35      -9.8982      1.00000
     36      -9.7887      1.00000
     37      -9.7038      1.00000
     38      -9.6915      1.00000
     39      -9.5285      1.00000
     40      -9.5237      1.00000
     41      -9.4350      1.00000
     42      -8.5959      1.00000
     43      -8.5936      1.00000
     44      -8.5870      1.00000
     45      -8.3642      1.00000
     46      -8.2133      1.00000
     47      -8.1925      1.00000
     48      -8.0983      1.00000
     49      -8.0511      1.00000
     50      -7.9785      1.00000
     51      -7.2987      1.00000
     52      -7.2655      1.00000
     53      -7.2509      1.00000
     54      -7.1983      1.00000
     55      -7.1936      1.00000
     56      -7.1480      1.00000
     57      -5.2212      1.00000
     58      -5.2193      1.00000
     59      -5.1658      1.00000
     60      -5.1404      1.00000
     61      -5.0212      1.00000
     62      -4.9846      1.00000
     63      -4.9115      1.00000
     64      -4.8470      1.00000
     65      -4.5884      1.00000
     66      -4.5824      1.00000
     67      -4.5824      1.00000
     68      -0.6385      0.00000
     69      -0.6194      0.00000
     70      -0.6152      0.00000
     71      -0.5649      0.00000
     72       0.4158      0.00000
     73       0.4267      0.00000
     74       0.5523      0.00000
     75       0.5553      0.00000
     76       0.6872      0.00000
     77       0.7144      0.00000
     78       1.3232      0.00000
     79       1.3830      0.00000
     80       1.6261      0.00000
     81       1.6294      0.00000
     82       1.8038      0.00000
     83       2.4878      0.00000
     84       2.5145      0.00000
     85       2.5842      0.00000
     86       2.7212      0.00000
     87       2.9597      0.00000
     88       3.3003      0.00000
     89       3.3699      0.00000
     90       3.3849      0.00000
     91       3.4467      0.00000
     92       3.4785      0.00000
     93       3.4951      0.00000
     94       3.5391      0.00000
     95       3.5600      0.00000
     96       3.5842      0.00000
     97       3.6419      0.00000
     98       3.6795      0.00000
     99       3.7575      0.00000
    100       4.3218      0.00000
    101       4.4717      0.00000
    102       4.4745      0.00000
    103       4.5914      0.00000
    104       4.6290      0.00000
    105       4.6526      0.00000
    106       4.6647      0.00000
    107       4.8754      0.00000
    108       4.8854      0.00000
    109       4.9383      0.00000
    110       4.9576      0.00000
    111       5.0240      0.00000
    112       5.0302      0.00000
    113       5.0580      0.00000
    114       5.0956      0.00000
    115       5.1170      0.00000
    116       5.1207      0.00000
    117       5.1353      0.00000
    118       5.1403      0.00000
    119       5.1872      0.00000
    120       5.2197      0.00000
    121       5.2606      0.00000
    122       5.3706      0.00000
    123       5.6712      0.00000
    124       5.6968      0.00000
    125       5.7710      0.00000
    126       5.7951      0.00000
    127       5.8033      0.00000
    128       5.8173      0.00000
    129       5.8301      0.00000
    130       5.8493      0.00000
    131       5.9919      0.00000
    132       6.0143      0.00000
    133       6.0701      0.00000
    134       6.1230      0.00000
    135       6.3560      0.00000
    136       6.4901      0.00000
    137       6.5869      0.00000
    138       6.6047      0.00000
    139       6.6190      0.00000
    140       6.7374      0.00000
    141       6.7958      0.00000
    142       6.8804      0.00000
    143       6.9936      0.00000
    144       7.1686      0.00000

 k-point     3 :       0.0526    0.0000    0.0000
  band No.  band energies     occupation 
      1     -28.0024      1.00000
      2     -28.0024      1.00000
      3     -27.9947      1.00000
      4     -21.7054      1.00000
      5     -20.4261      1.00000
      6     -20.3100      1.00000
      7     -20.2939      1.00000
      8     -20.1799      1.00000
      9     -20.1395      1.00000
     10     -20.0488      1.00000
     11     -17.6426      1.00000
     12     -17.6257      1.00000
     13     -17.4219      1.00000
     14     -17.4149      1.00000
     15     -17.2150      1.00000
     16     -17.1946      1.00000
     17     -16.5347      1.00000
     18     -16.4821      1.00000
     19     -16.4756      1.00000
     20     -15.3953      1.00000
     21     -15.3863      1.00000
     22     -15.3351      1.00000
     23     -12.9188      1.00000
     24     -12.9187      1.00000
     25     -12.7542      1.00000
     26     -12.7458      1.00000
     27     -12.5300      1.00000
     28     -12.5270      1.00000
     29     -11.3069      1.00000
     30     -11.3032      1.00000
     31     -11.0962      1.00000
     32     -11.0956      1.00000
     33     -10.9334      1.00000
     34     -10.9286      1.00000
     35      -9.9613      1.00000
     36      -9.8945      1.00000
     37      -9.7901      1.00000
     38      -9.7792      1.00000
     39      -9.4430      1.00000
     40      -9.4362      1.00000
     41      -9.2649      1.00000
     42      -8.6056      1.00000
     43      -8.6016      1.00000
     44      -8.5857      1.00000
     45      -8.4159      1.00000
     46      -8.2403      1.00000
     47      -8.2072      1.00000
     48      -8.0938      1.00000
     49      -8.0174      1.00000
     50      -7.9037      1.00000
     51      -7.3597      1.00000
     52      -7.3063      1.00000
     53      -7.2941      1.00000
     54      -7.1716      1.00000
     55      -7.1714      1.00000
     56      -7.0860      1.00000
     57      -5.2671      1.00000
     58      -5.2342      1.00000
     59      -5.2326      1.00000
     60      -5.2209      1.00000
     61      -5.0330      1.00000
     62      -4.9813      1.00000
     63      -4.8231      1.00000
     64      -4.7480      1.00000
     65      -4.6018      1.00000
     66      -4.5805      1.00000
     67      -4.5787      1.00000
     68      -0.6341      0.00000
     69      -0.6140      0.00000
     70      -0.5985      0.00000
     71      -0.5545      0.00000
     72       0.2917      0.00000
     73       0.3050      0.00000
     74       0.5484      0.00000
     75       0.5506      0.00000
     76       0.8110      0.00000
     77       0.8345      0.00000
     78       1.3093      0.00000
     79       1.3870      0.00000
     80       1.6148      0.00000
     81       1.6240      0.00000
     82       1.8335      0.00000
     83       2.4425      0.00000
     84       2.5271      0.00000
     85       2.5882      0.00000
     86       2.7834      0.00000
     87       2.9563      0.00000
     88       3.2218      0.00000
     89       3.3256      0.00000
     90       3.3317      0.00000
     91       3.3824      0.00000
     92       3.4981      0.00000
     93       3.5019      0.00000
     94       3.5453      0.00000
     95       3.5503      0.00000
     96       3.6574      0.00000
     97       3.7022      0.00000
     98       3.7258      0.00000
     99       3.8470      0.00000
    100       4.2787      0.00000
    101       4.4376      0.00000
    102       4.4439      0.00000
    103       4.5458      0.00000
    104       4.5719      0.00000
    105       4.6427      0.00000
    106       4.6818      0.00000
    107       4.8315      0.00000
    108       4.8835      0.00000
    109       4.8882      0.00000
    110       4.9133      0.00000
    111       4.9893      0.00000
    112       4.9972      0.00000
    113       5.0988      0.00000
    114       5.1201      0.00000
    115       5.1212      0.00000
    116       5.1355      0.00000
    117       5.1699      0.00000
    118       5.2011      0.00000
    119       5.2300      0.00000
    120       5.3401      0.00000
    121       5.3660      0.00000
    122       5.3956      0.00000
    123       5.5735      0.00000
    124       5.6349      0.00000
    125       5.7532      0.00000
    126       5.7929      0.00000
    127       5.8065      0.00000
    128       5.8325      0.00000
    129       5.8510      0.00000
    130       5.8725      0.00000
    131       5.9713      0.00000
    132       6.0171      0.00000
    133       6.1137      0.00000
    134       6.1554      0.00000
    135       6.4511      0.00000
    136       6.4521      0.00000
    137       6.5587      0.00000
    138       6.6137      0.00000
    139       6.7311      0.00000
    140       6.7968      0.00000
    141       6.8308      0.00000
    142       6.9274      0.00000
    143       6.9693      0.00000
    144       7.1526      0.00000

 k-point     4 :       0.0789    0.0000    0.0000
  band No.  band energies     occupation 
      1     -28.0024      1.00000
      2     -28.0024      1.00000
      3     -27.9947      1.00000
      4     -21.7004      1.00000
      5     -20.4870      1.00000
      6     -20.3404      1.00000
      7     -20.3315      1.00000
      8     -20.1358      1.00000
      9     -20.0991      1.00000
     10     -19.9747      1.00000
     11     -17.7455      1.00000
     12     -17.7279      1.00000
     13     -17.4174      1.00000
     14     -17.4103      1.00000
     15     -17.1058      1.00000
     16     -17.0857      1.00000
     17     -16.6124      1.00000
     18     -16.5012      1.00000
     19     -16.4952      1.00000
     20     -15.3670      1.00000
     21     -15.3587      1.00000
     22     -15.2496      1.00000
     23     -13.0238      1.00000
     24     -13.0226      1.00000
     25     -12.7954      1.00000
     26     -12.7872      1.00000
     27     -12.4425      1.00000
     28     -12.4385      1.00000
     29     -11.3814      1.00000
     30     -11.3790      1.00000
     31     -11.0537      1.00000
     32     -11.0534      1.00000
     33     -10.8302      1.00000
     34     -10.8244      1.00000
     35     -10.1348      1.00000
     36      -9.8901      1.00000
     37      -9.8767      1.00000
     38      -9.8649      1.00000
     39      -9.3578      1.00000
     40      -9.3503      1.00000
     41      -9.0943      1.00000
     42      -8.6218      1.00000
     43      -8.6173      1.00000
     44      -8.5810      1.00000
     45      -8.4782      1.00000
     46      -8.2720      1.00000
     47      -8.2474      1.00000
     48      -8.0514      1.00000
     49      -7.9743      1.00000
     50      -7.8218      1.00000
     51      -7.4214      1.00000
     52      -7.3542      1.00000
     53      -7.3430      1.00000
     54      -7.1541      1.00000
     55      -7.1527      1.00000
     56      -7.0201      1.00000
     57      -5.3729      1.00000
     58      -5.3313      1.00000
     59      -5.2551      1.00000
     60      -5.2364      1.00000
     61      -5.0344      1.00000
     62      -4.9783      1.00000
     63      -4.7544      1.00000
     64      -4.6561      1.00000
     65      -4.6155      1.00000
     66      -4.5664      1.00000
     67      -4.5618      1.00000
     68      -0.6283      0.00000
     69      -0.6051      0.00000
     70      -0.5794      0.00000
     71      -0.5279      0.00000
     72       0.1671      0.00000
     73       0.1801      0.00000
     74       0.5386      0.00000
     75       0.5403      0.00000
     76       0.9379      0.00000
     77       0.9602      0.00000
     78       1.2868      0.00000
     79       1.3938      0.00000
     80       1.6047      0.00000
     81       1.6157      0.00000
     82       1.8721      0.00000
     83       2.3950      0.00000
     84       2.5478      0.00000
     85       2.5947      0.00000
     86       2.8599      0.00000
     87       2.9471      0.00000
     88       3.1427      0.00000
     89       3.2766      0.00000
     90       3.2811      0.00000
     91       3.3064      0.00000
     92       3.4580      0.00000
     93       3.4769      0.00000
     94       3.5776      0.00000
     95       3.6078      0.00000
     96       3.7465      0.00000
     97       3.7794      0.00000
     98       3.7821      0.00000
     99       3.9393      0.00000
    100       4.2139      0.00000
    101       4.3970      0.00000
    102       4.4076      0.00000
    103       4.4257      0.00000
    104       4.5253      0.00000
    105       4.6299      0.00000
    106       4.6644      0.00000
    107       4.7793      0.00000
    108       4.8569      0.00000
    109       4.8622      0.00000
    110       4.9517      0.00000
    111       4.9519      0.00000
    112       4.9918      0.00000
    113       5.1107      0.00000
    114       5.1449      0.00000
    115       5.1474      0.00000
    116       5.1623      0.00000
    117       5.2390      0.00000
    118       5.2722      0.00000
    119       5.2829      0.00000
    120       5.3836      0.00000
    121       5.4441      0.00000
    122       5.4569      0.00000
    123       5.5408      0.00000
    124       5.5483      0.00000
    125       5.7400      0.00000
    126       5.8039      0.00000
    127       5.8165      0.00000
    128       5.8601      0.00000
    129       5.8818      0.00000
    130       5.9082      0.00000
    131       5.9617      0.00000
    132       6.0190      0.00000
    133       6.2105      0.00000
    134       6.3395      0.00000
    135       6.4452      0.00000
    136       6.5222      0.00000
    137       6.5742      0.00000
    138       6.5820      0.00000
    139       6.6378      0.00000
    140       6.7682      0.00000
    141       6.8453      0.00000
    142       6.8757      0.00000
    143       6.9793      0.00000
    144       7.0466      0.00000

 k-point     5 :       0.1053    0.0000    0.0000
  band No.  band energies     occupation 
      1     -28.0024      1.00000
      2     -28.0024      1.00000
      3     -27.9947      1.00000
      4     -21.6933      1.00000
      5     -20.5500      1.00000
      6     -20.3702      1.00000
      7     -20.3664      1.00000
      8     -20.0889      1.00000
      9     -20.0555      1.00000
     10     -19.8963      1.00000
     11     -17.8469      1.00000
     12     -17.8289      1.00000
     13     -17.4111      1.00000
     14     -17.4038      1.00000
     15     -16.9960      1.00000
     16     -16.9754      1.00000
     17     -16.7065      1.00000
     18     -16.5262      1.00000
     19     -16.5207      1.00000
     20     -15.3294      1.00000
     21     -15.3215      1.00000
     22     -15.1440      1.00000
     23     -13.1321      1.00000
     24     -13.1299      1.00000
     25     -12.8499      1.00000
     26     -12.8419      1.00000
     27     -12.3574      1.00000
     28     -12.3525      1.00000
     29     -11.4510      1.00000
     30     -11.4494      1.00000
     31     -10.9972      1.00000
     32     -10.9971      1.00000
     33     -10.7218      1.00000
     34     -10.7152      1.00000
     35     -10.3090      1.00000
     36      -9.9633      1.00000
     37      -9.9541      1.00000
     38      -9.8795      1.00000
     39      -9.2733      1.00000
     40      -9.2655      1.00000
     41      -8.9244      1.00000
     42      -8.6443      1.00000
     43      -8.6396      1.00000
     44      -8.5741      1.00000
     45      -8.5448      1.00000
     46      -8.3044      1.00000
     47      -8.2894      1.00000
     48      -7.9992      1.00000
     49      -7.9260      1.00000
     50      -7.7351      1.00000
     51      -7.4827      1.00000
     52      -7.4085      1.00000
     53      -7.3976      1.00000
     54      -7.1424      1.00000
     55      -7.1403      1.00000
     56      -6.9526      1.00000
     57      -5.4800      1.00000
     58      -5.4368      1.00000
     59      -5.2848      1.00000
     60      -5.2523      1.00000
     61      -5.0327      1.00000
     62      -4.9743      1.00000
     63      -4.7451      1.00000
     64      -4.6196      1.00000
     65      -4.6176      1.00000
     66      -4.5064      1.00000
     67      -4.4981      1.00000
     68      -0.6214      0.00000
     69      -0.5927      0.00000
     70      -0.5643      0.00000
     71      -0.4801      0.00000
     72       0.0441      0.00000
     73       0.0550      0.00000
     74       0.5245      0.00000
     75       0.5258      0.00000
     76       1.0654      0.00000
     77       1.0870      0.00000
     78       1.2573      0.00000
     79       1.4034      0.00000
     80       1.5993      0.00000
     81       1.6048      0.00000
     82       1.9127      0.00000
     83       2.3536      0.00000
     84       2.5759      0.00000
     85       2.6034      0.00000
     86       2.9236      0.00000
     87       2.9443      0.00000
     88       3.0753      0.00000
     89       3.2029      0.00000
     90       3.2386      0.00000
     91       3.2572      0.00000
     92       3.4185      0.00000
     93       3.4335      0.00000
     94       3.6359      0.00000
     95       3.6695      0.00000
     96       3.8177      0.00000
     97       3.8364      0.00000
     98       3.8820      0.00000
     99       4.0136      0.00000
    100       4.1371      0.00000
    101       4.2923      0.00000
    102       4.3680      0.00000
    103       4.3702      0.00000
    104       4.4890      0.00000
    105       4.5776      0.00000
    106       4.6009      0.00000
    107       4.7310      0.00000
    108       4.8653      0.00000
    109       4.8831      0.00000
    110       4.9122      0.00000
    111       4.9221      0.00000
    112       5.0828      0.00000
    113       5.1160      0.00000
    114       5.1760      0.00000
    115       5.1811      0.00000
    116       5.1952      0.00000
    117       5.3074      0.00000
    118       5.3359      0.00000
    119       5.3459      0.00000
    120       5.3474      0.00000
    121       5.4193      0.00000
    122       5.4337      0.00000
    123       5.5349      0.00000
    124       5.7003      0.00000
    125       5.7363      0.00000
    126       5.8238      0.00000
    127       5.8358      0.00000
    128       5.8859      0.00000
    129       5.9230      0.00000
    130       5.9509      0.00000
    131       5.9643      0.00000
    132       6.0201      0.00000
    133       6.1754      0.00000
    134       6.2047      0.00000
    135       6.4582      0.00000
    136       6.4859      0.00000
    137       6.5912      0.00000
    138       6.7014      0.00000
    139       6.7350      0.00000
    140       6.8271      0.00000
    141       6.8430      0.00000
    142       6.9342      0.00000
    143       6.9507      0.00000
    144       7.0038      0.00000

 k-point     6 :       0.1316    0.0000    0.0000
  band No.  band energies     occupation 
      1     -28.0024      1.00000
      2     -28.0024      1.00000
      3     -27.9947      1.00000
      4     -21.6843      1.00000
      5     -20.6131      1.00000
      6     -20.3985      1.00000
      7     -20.3983      1.00000
      8     -20.0402      1.00000
      9     -20.0094      1.00000
     10     -19.8147      1.00000
     11     -17.9469      1.00000
     12     -17.9286      1.00000
     13     -17.4029      1.00000
     14     -17.3955      1.00000
     15     -16.8903      1.00000
     16     -16.8640      1.00000
     17     -16.8062      1.00000
     18     -16.5560      1.00000
     19     -16.5511      1.00000
     20     -15.2835      1.00000
     21     -15.2761      1.00000
     22     -15.0247      1.00000
     23     -13.2433      1.00000
     24     -13.2402      1.00000
     25     -12.9152      1.00000
     26     -12.9075      1.00000
     27     -12.2746      1.00000
     28     -12.2689      1.00000
     29     -11.5150      1.00000
     30     -11.5143      1.00000
     31     -10.9295      1.00000
     32     -10.9293      1.00000
     33     -10.6089      1.00000
     34     -10.6016      1.00000
     35     -10.4833      1.00000
     36     -10.0497      1.00000
     37     -10.0404      1.00000
     38      -9.8691      1.00000
     39      -9.1898      1.00000
     40      -9.1819      1.00000
     41      -8.7559      1.00000
     42      -8.6730      1.00000
     43      -8.6681      1.00000
     44      -8.6128      1.00000
     45      -8.5650      1.00000
     46      -8.3359      1.00000
     47      -8.3285      1.00000
     48      -7.9433      1.00000
     49      -7.8742      1.00000
     50      -7.6445      1.00000
     51      -7.5432      1.00000
     52      -7.4690      1.00000
     53      -7.4578      1.00000
     54      -7.1362      1.00000
     55      -7.1338      1.00000
     56      -6.8841      1.00000
     57      -5.5868      1.00000
     58      -5.5429      1.00000
     59      -5.3228      1.00000
     60      -5.2723      1.00000
     61      -5.0294      1.00000
     62      -4.9693      1.00000
     63      -4.7837      1.00000
     64      -4.6226      1.00000
     65      -4.6146      1.00000
     66      -4.4161      1.00000
     67      -4.3946      1.00000
     68      -0.6136      0.00000
     69      -0.5772      0.00000
     70      -0.5497      0.00000
     71      -0.4177      0.00000
     72      -0.0740      0.00000
     73      -0.0692      0.00000
     74       0.5065      0.00000
     75       0.5072      0.00000
     76       1.1911      0.00000
     77       1.2141      0.00000
     78       1.2246      0.00000
     79       1.4158      0.00000
     80       1.5919      0.00000
     81       1.5995      0.00000
     82       1.9494      0.00000
     83       2.3237      0.00000
     84       2.6107      0.00000
     85       2.6135      0.00000
     86       2.8777      0.00000
     87       3.0250      0.00000
     88       3.0329      0.00000
     89       3.1300      0.00000
     90       3.1985      0.00000
     91       3.2229      0.00000
     92       3.3812      0.00000
     93       3.3931      0.00000
     94       3.6977      0.00000
     95       3.7341      0.00000
     96       3.8839      0.00000
     97       3.8953      0.00000
     98       3.9458      0.00000
     99       4.0300      0.00000
    100       4.0562      0.00000
    101       4.2635      0.00000
    102       4.3332      0.00000
    103       4.3335      0.00000
    104       4.4439      0.00000
    105       4.5028      0.00000
    106       4.5222      0.00000
    107       4.6876      0.00000
    108       4.8581      0.00000
    109       4.8806      0.00000
    110       4.9238      0.00000
    111       4.9350      0.00000
    112       5.1171      0.00000
    113       5.1328      0.00000
    114       5.2215      0.00000
    115       5.2255      0.00000
    116       5.2357      0.00000
    117       5.2739      0.00000
    118       5.3073      0.00000
    119       5.3887      0.00000
    120       5.4038      0.00000
    121       5.4215      0.00000
    122       5.4549      0.00000
    123       5.5889      0.00000
    124       5.7665      0.00000
    125       5.8419      0.00000
    126       5.8527      0.00000
    127       5.8635      0.00000
    128       5.9147      0.00000
    129       5.9543      0.00000
    130       5.9795      0.00000
    131       5.9825      0.00000
    132       6.0265      0.00000
    133       6.1339      0.00000
    134       6.1717      0.00000
    135       6.4293      0.00000
    136       6.4487      0.00000
    137       6.6192      0.00000
    138       6.6808      0.00000
    139       6.7008      0.00000
    140       6.7855      0.00000
    141       6.8212      0.00000
    142       6.8791      0.00000
    143       6.9023      0.00000
    144       6.9772      0.00000

 k-point     7 :       0.1579    0.0000    0.0000
  band No.  band energies     occupation 
      1     -28.0024      1.00000
      2     -28.0024      1.00000
      3     -27.9947      1.00000
      4     -21.6732      1.00000
      5     -20.6756      1.00000
      6     -20.4274      1.00000
      7     -20.4251      1.00000
      8     -19.9899      1.00000
      9     -19.9610      1.00000
     10     -19.7302      1.00000
     11     -18.0454      1.00000
     12     -18.0269      1.00000
     13     -17.3929      1.00000
     14     -17.3854      1.00000
     15     -16.9306      1.00000
     16     -16.7662      1.00000
     17     -16.7524      1.00000
     18     -16.5888      1.00000
     19     -16.5846      1.00000
     20     -15.2305      1.00000
     21     -15.2235      1.00000
     22     -14.8957      1.00000
     23     -13.3571      1.00000
     24     -13.3530      1.00000
     25     -12.9890      1.00000
     26     -12.9816      1.00000
     27     -12.1938      1.00000
     28     -12.1875      1.00000
     29     -11.5734      1.00000
     30     -11.5734      1.00000
     31     -10.8529      1.00000
     32     -10.8525      1.00000
[...]
  0.000  -0.000  -4.310  -0.000  -0.000  -0.018   0.000  -0.000
  0.000  -0.000  -0.000  -4.303   0.000   0.000  -0.015   0.000
  0.000  -0.000  -0.000   0.000  -4.310  -0.000   0.000  -0.018
 -0.000  -0.000  -0.018   0.000  -0.000  -0.772  -0.000  -0.000
 -0.000  -0.000   0.000  -0.015   0.000  -0.000  -0.771  -0.000
 -0.000  -0.000  -0.000   0.000  -0.018  -0.000  -0.000  -0.772
 total augmentation occupancy for first ion, spin component:           1
  2.000   0.000   0.000   0.000   0.000   0.000   0.000   0.000
  0.000   0.000   0.000   0.000   0.000   0.000   0.000   0.000
  0.000   0.000   0.667   0.000   0.000   0.000   0.000   0.000
  0.000   0.000   0.000   0.667   0.000   0.000   0.000   0.000
  0.000   0.000   0.000   0.000   0.667   0.000   0.000   0.000
  0.000   0.000   0.000   0.000   0.000   0.000   0.000   0.000
  0.000   0.000   0.000   0.000   0.000   0.000   0.000   0.000
  0.000   0.000   0.000   0.000   0.000   0.000   0.000   0.000
 total augmentation occupancy for first ion, spin component:           2
  0.500   0.000   0.000   0.000   0.000   0.000   0.000   0.000
  0.000   0.000   0.000   0.000   0.000   0.000   0.000   0.000
  0.000   0.000   0.167   0.000   0.000   0.000   0.000   0.000
  0.000   0.000   0.000   0.167   0.000   0.000   0.000   0.000
  0.000   0.000   0.000   0.000   0.167   0.000   0.000   0.000
  0.000   0.000   0.000   0.000   0.000   0.000   0.000   0.000
  0.000   0.000   0.000   0.000   0.000   0.000   0.000   0.000
  0.000   0.000   0.000   0.000   0.000   0.000   0.000   0.000


------------------------ aborting loop because EDIFF is reached ----------------------------------------


 


 total charge     
 
# of ion       s       p       d       tot
------------------------------------------
    1        0.863   1.791   0.000   2.655
    2        0.863   1.791   0.000   2.654
    3        0.863   1.793   0.000   2.656
    4        0.863   1.793   0.000   2.656
    5        0.863   1.793   0.000   2.656
    6        0.861   1.792   0.000   2.653
    7        0.863   1.792   0.000   2.655
    8        0.863   1.793   0.000   2.656
    9        0.863   1.791   0.000   2.654
   10        0.861   1.791   0.000   2.652
   11        0.861   1.793   0.000   2.654
   12        0.863   1.792   0.000   2.656
   13        0.863   1.791   0.000   2.654
   14        0.863   1.791   0.000   2.654
   15        0.863   1.792   0.000   2.654
   16        0.863   1.793   0.000   2.656
   17        0.863   1.793   0.000   2.656
   18        0.863   1.792   0.000   2.654
   19        0.863   1.791   0.000   2.654
   20        0.863   1.791   0.000   2.654
   21        0.863   1.792   0.000   2.656
   22        0.861   1.793   0.000   2.654
   23        0.861   1.791   0.000   2.652
   24        0.863   1.791   0.000   2.654
   25        0.863   1.793   0.000   2.656
   26        0.863   1.792   0.000   2.655
   27        0.861   1.792   0.000   2.653
   28        0.863   1.793   0.000   2.656
   29        0.863   1.793   0.000   2.656
   30        0.863   1.793   0.000   2.656
   31        0.863   1.791   0.000   2.654
   32        0.863   1.791   0.000   2.655
   33        0.028   5.963   0.000   5.990
--------------------------------------------------
tot         27.636  63.305   0.000  90.942
 


 magnetization (x)
 
# of ion       s       p       d       tot
------------------------------------------
    1       -0.000   0.000   0.000   0.000
    2       -0.000  -0.000   0.000  -0.000
    3       -0.000  -0.000   0.000  -0.000
    4       -0.000  -0.000   0.000  -0.000
    5       -0.000  -0.000   0.000  -0.000
    6       -0.000  -0.000   0.000  -0.000
    7       -0.000  -0.000   0.000  -0.000
    8       -0.000  -0.000   0.000  -0.000
    9       -0.000   0.000   0.000   0.000
   10       -0.000   0.000   0.000  -0.000
   11       -0.000  -0.000   0.000  -0.000
   12       -0.000  -0.000   0.000  -0.000
   13       -0.000  -0.000   0.000  -0.000
   14       -0.000   0.000   0.000   0.000
   15       -0.000  -0.000   0.000  -0.000
   16       -0.000  -0.000   0.000  -0.000
   17       -0.000  -0.000   0.000  -0.000
   18       -0.000  -0.000   0.000  -0.000
   19       -0.000   0.000   0.000   0.000
   20       -0.000  -0.000   0.000  -0.000
   21       -0.000  -0.000   0.000  -0.000
   22       -0.000  -0.000   0.000  -0.000
   23       -0.000   0.000   0.000  -0.000
   24       -0.000   0.000   0.000   0.000
   25       -0.000  -0.000   0.000  -0.000
   26       -0.000  -0.000   0.000  -0.000
   27       -0.000   0.000   0.000  -0.000
   28       -0.000  -0.000   0.000  -0.000
   29       -0.000  -0.000   0.000  -0.000
   30       -0.000  -0.000   0.000  -0.000
   31       -0.000   0.000   0.000   0.000
   32       -0.000   0.000   0.000   0.000
   33       -0.008  -0.000   0.000  -0.008
--------------------------------------------------
tot         -0.008  -0.002   0.000  -0.010
 
    CHARGE:  cpu time   15.4467: real time   15.4601
    FORLOC:  cpu time    0.0270: real time    0.0277
    FORNL :  cpu time   76.5904: real time   76.6361
    STRESS:  cpu time  228.7752: real time  228.8989
    FORCOR:  cpu time    0.3369: real time    0.3380
    FORHAR:  cpu time    0.0610: real time    0.0611
    OFIELD:  cpu time    0.0030: real time    0.0027

  FORCE on cell =-STRESS in cart. coord.  units (eV):
  Direction    XX          YY          ZZ          XY          YZ          ZX
  --------------------------------------------------------------------------------------
  Alpha Z    55.59042    55.59042    55.59042
  Ewald   26221.75407 26221.61439-30603.04900    -0.06816     0.02345    -0.04669
  Hartree 26009.51295 26009.36429-25560.84413     0.15996     0.01290    -0.02617
  E(xc)    -505.14747  -505.14785  -523.41668    -0.00017     0.00002    -0.00005
  Local  -53645.11668-53645.55418 54481.45151     0.66088    -0.03599     0.07196
  n-local  -138.35288  -138.45781  -131.74088     0.13060    -0.00002    -0.00033
  augment    29.44488    29.44864    30.67551    -0.00603    -0.00002    -0.00003
  Kinetic  1976.35032  1976.67989  2258.55705    -1.21895    -0.00029     0.00055
  Fock        0.00000     0.00000     0.00000     0.00000     0.00000     0.00000
  -------------------------------------------------------------------------------------
  Total       4.03561     3.53779     7.22379    -0.34187     0.00004    -0.00075
  in kB       3.82870     3.35641     6.85343    -0.32434     0.00004    -0.00071
  external pressure =        4.68 kB  Pullay stress =        0.00 kB


 VOLUME and BASIS-vectors are now :
 -----------------------------------------------------------------------------
  energy-cutoff  :      500.00
  volume of cell :     1688.76
      direct lattice vectors                 reciprocal lattice vectors
     9.874235153  0.000000000  0.000000000     0.101273667  0.058470379  0.000000000
    -4.937117577  8.551338486  0.000000000     0.000000000  0.116940757  0.000000000
     0.000000000  0.000000000 20.000000000     0.000000000  0.000000000  0.050000000

  length of vectors
     9.874235153  9.874235153 20.000000000     0.116940757  0.116940757  0.050000000


 FORCES acting on ions
    electron-ion (+dipol)            ewald-force                    non-local-force                 convergence-correction
 -----------------------------------------------------------------------------------------------
   0.264E+01 0.802E+01 0.143E+02   -.285E+01 -.834E+01 -.150E+02   0.272E-01 0.102E+00 0.121E+00   0.136E+00 0.180E+00 0.592E+00
   -.272E+01 0.804E+01 0.145E+02   0.285E+01 -.834E+01 -.152E+02   -.148E+00 0.111E+00 0.119E+00   -.109E-01 0.179E+00 0.593E+00
   -.152E+01 -.921E+00 0.118E+02   0.178E+01 0.103E+01 -.124E+02   -.103E+00 -.498E-01 0.110E+00   -.130E+00 -.554E-01 0.524E+00
   0.180E+01 -.961E+00 0.109E+02   -.178E+01 0.103E+01 -.115E+02   -.467E-02 -.588E-01 0.741E-01   -.339E-01 -.434E-01 0.526E+00
   0.139E+02 0.799E+01 0.220E+02   -.145E+02 -.836E+01 -.229E+02   0.305E+00 0.185E+00 0.218E+00   0.225E+00 0.158E+00 0.705E+00
   -.142E-01 0.230E+02 0.520E+02   0.188E-02 -.238E+02 -.539E+02   -.562E-01 0.515E+00 0.102E+01   0.585E-01 0.207E+00 0.941E+00
   -.139E+02 0.807E+01 0.202E+02   0.145E+02 -.837E+01 -.211E+02   -.425E+00 0.182E+00 0.160E+00   -.246E+00 0.789E-01 0.707E+00
   0.104E+00 0.196E+01 0.108E+02   0.117E-02 -.206E+01 -.114E+02   -.616E-01 0.380E-01 0.764E-01   -.713E-01 0.329E-01 0.525E+00
   0.830E+01 -.176E+01 0.143E+02   -.865E+01 0.170E+01 -.150E+02   0.943E-01 -.144E-01 0.114E+00   0.208E+00 0.306E-01 0.591E+00
   0.200E+02 -.116E+02 0.516E+02   -.206E+02 0.119E+02 -.536E+02   0.411E+00 -.294E+00 0.101E+01   0.182E+00 -.454E-01 0.942E+00
   -.198E+02 -.114E+02 0.519E+02   0.206E+02 0.119E+02 -.539E+02   -.520E+00 -.292E+00 0.101E+01   -.278E+00 -.168E+00 0.942E+00
   -.832E+01 -.163E+01 0.145E+02   0.865E+01 0.170E+01 -.152E+02   -.216E+00 -.140E-01 0.121E+00   -.147E+00 -.892E-01 0.590E+00
   0.104E-01 -.123E-01 0.111E+02   -.910E-03 0.832E-03 -.117E+02   -.498E-01 -.209E-01 0.933E-01   0.509E-01 0.209E-01 0.502E+00
   0.564E+01 -.640E+01 0.142E+02   -.580E+01 0.664E+01 -.150E+02   0.137E-01 -.170E+00 0.112E+00   0.132E+00 -.102E+00 0.589E+00
   0.106E+00 -.160E+02 0.220E+02   -.137E-02 0.167E+02 -.229E+02   -.620E-01 -.444E+00 0.216E+00   -.795E-01 -.249E+00 0.702E+00
   -.555E+01 -.641E+01 0.143E+02   0.580E+01 0.664E+01 -.150E+02   -.127E+00 -.166E+00 0.120E+00   -.144E+00 -.978E-01 0.591E+00
   0.556E+01 0.641E+01 0.143E+02   -.580E+01 -.664E+01 -.150E+02   0.127E+00 0.167E+00 0.124E+00   0.143E+00 0.968E-01 0.593E+00
   -.105E+00 0.160E+02 0.221E+02   -.194E-02 -.167E+02 -.230E+02   0.617E-01 0.444E+00 0.214E+00   0.806E-01 0.249E+00 0.704E+00
   -.565E+01 0.640E+01 0.141E+02   0.580E+01 -.664E+01 -.148E+02   -.135E-01 0.170E+00 0.126E+00   -.133E+00 0.105E+00 0.593E+00
   -.109E-01 0.103E-01 0.110E+02   0.702E-03 0.440E-03 -.116E+02   0.497E-01 0.207E-01 0.999E-01   -.503E-01 -.199E-01 0.505E+00
   0.832E+01 0.163E+01 0.142E+02   -.865E+01 -.171E+01 -.149E+02   0.216E+00 0.142E-01 0.118E+00   0.145E+00 0.878E-01 0.591E+00
   0.198E+02 0.114E+02 0.518E+02   -.206E+02 -.119E+02 -.537E+02   0.520E+00 0.292E+00 0.998E+00   0.280E+00 0.167E+00 0.942E+00
   -.200E+02 0.116E+02 0.516E+02   0.206E+02 -.119E+02 -.536E+02   -.412E+00 0.294E+00 0.102E+01   -.180E+00 0.461E-01 0.943E+00
   -.831E+01 0.176E+01 0.140E+02   0.866E+01 -.170E+01 -.148E+02   -.941E-01 0.147E-01 0.137E+00   -.210E+00 -.321E-01 0.592E+00
   -.104E+00 -.195E+01 0.116E+02   -.172E-02 0.206E+01 -.123E+02   0.616E-01 -.380E-01 0.976E-01   0.712E-01 -.335E-01 0.522E+00
   0.138E+02 -.805E+01 0.219E+02   -.145E+02 0.836E+01 -.228E+02   0.425E+00 -.182E+00 0.217E+00   0.246E+00 -.780E-01 0.702E+00
   0.126E-01 -.230E+02 0.517E+02   -.381E-02 0.238E+02 -.537E+02   0.556E-01 -.515E+00 0.101E+01   -.552E-01 -.208E+00 0.942E+00
   -.139E+02 -.799E+01 0.221E+02   0.145E+02 0.836E+01 -.230E+02   -.305E+00 -.184E+00 0.215E+00   -.227E+00 -.159E+00 0.703E+00
   -.180E+01 0.959E+00 0.109E+02   0.178E+01 -.103E+01 -.115E+02   0.472E-02 0.588E-01 0.744E-01   0.333E-01 0.439E-01 0.524E+00
   0.152E+01 0.919E+00 0.116E+02   -.178E+01 -.103E+01 -.122E+02   0.103E+00 0.497E-01 0.976E-01   0.130E+00 0.566E-01 0.523E+00
   0.271E+01 -.804E+01 0.143E+02   -.285E+01 0.834E+01 -.150E+02   0.148E+00 -.111E+00 0.107E+00   0.114E-01 -.179E+00 0.590E+00
   -.264E+01 -.802E+01 0.143E+02   0.285E+01 0.834E+01 -.150E+02   -.272E-01 -.102E+00 0.122E+00   -.135E+00 -.180E+00 0.592E+00
   0.517E-01 -.304E-01 -.741E+03   -.519E-01 0.309E-01 0.733E+03   0.154E-04 -.640E-03 0.404E+01   0.127E-03 0.139E-03 0.413E+01
 -----------------------------------------------------------------------------------------------
   -.624E-03 0.886E-03 -.390E+02   -.132E-13 0.214E-13 0.000E+00   -.654E-03 -.207E-03 0.135E+02   0.119E-02 -.511E-03 0.252E+02
 
 
 POSITION                                       TOTAL-FORCE (eV/Angst)
 -----------------------------------------------------------------------------------
      1.23329      0.71105     10.00000        -0.045320     -0.042529     -0.006562
      3.70383      0.71105      9.99949        -0.024460     -0.013043     -0.006083
      6.17176      0.71283     10.00000         0.028003      0.001914      0.032006
      8.63959      0.71282     10.00172        -0.023501     -0.032826      0.005143
     -0.00416      2.84804      9.99579        -0.015385     -0.025452      0.009120
      2.46855      2.84552      9.98311        -0.009999     -0.023631      0.019799
      4.94129      2.84804     10.00000        -0.032630     -0.040052     -0.030362
      7.40567      2.85002     10.00218        -0.027819     -0.031767      0.007541
     -1.23613      4.98821      9.99992        -0.047014     -0.043042     -0.010651
      1.23001      4.99075      9.98367        -0.009887     -0.022326      0.013948
      3.70710      4.99075      9.98316         0.011262     -0.009968      0.013154
      6.17324      4.98821      9.99957        -0.030417     -0.027175     -0.003523
     -2.46856      7.12612     10.00001         0.010685     -0.011505      0.009585
     -0.00086      7.12775      9.99979        -0.010345     -0.034557     -0.012639
      2.46856      7.13092      9.99571        -0.036384     -0.026285      0.009234
      4.93797      7.12775     10.00000        -0.023799     -0.034410     -0.006110
     -0.00086      1.42358     10.00000         0.024441      0.034541     -0.003120
      2.46857      1.42042      9.99551         0.035737      0.026540      0.009264
      4.93797      1.42359     10.00076         0.010788      0.034082     -0.004256
      7.40568      1.42522     10.00062        -0.010820      0.011545      0.016114
     -1.23613      3.56313     10.00041         0.031016      0.027236     -0.007967
      1.23001      3.56059      9.98340        -0.011180      0.010671      0.004801
      3.70709      3.56061      9.98431         0.011295      0.021183      0.022527
      6.17324      3.56314     10.00128         0.047590      0.043188      0.002482
     -2.46856      5.70132     10.00000         0.027570      0.031472      0.021539
     -0.00418      5.70330      9.99585         0.031528      0.040557      0.010208
      2.46857      5.70582      9.98347         0.009235      0.023545      0.012060
      4.94129      5.70329      9.99547         0.014827      0.025986      0.008639
     -3.70247      7.83851     10.00160         0.023042      0.032950      0.005406
     -1.23465      7.83851     10.00000        -0.028063     -0.001753      0.021763
      1.23329      7.84029      9.99981         0.024556      0.012808     -0.016355
      3.70383      7.84029     10.00000         0.045473      0.042144     -0.005319
      2.46856      4.27567     12.29870        -0.000024     -0.000041     -0.141386
 -----------------------------------------------------------------------------------
    total drift:                               -0.000089      0.000168     -0.223858


--------------------------------------------------------------------------------------------------------



  FREE ENERGIE OF THE ION-ELECTRON SYSTEM (eV)
  ---------------------------------------------------
  free  energy   TOTEN  =      -295.84641270 eV

  energy  without entropy=     -295.82592396  energy(sigma->0) =     -295.83616833
 


--------------------------------------------------------------------------------------------------------


    POTLOK:  cpu time    0.4159: real time    0.4159


--------------------------------------------------------------------------------------------------------


 writing wavefunctions
     LOOP+:  cpu time 2998.5831: real time 3031.6361
    4ORBIT:  cpu time    0.0000: real time    0.0000
 


 total charge     
 
# of ion       s       p       d       tot
------------------------------------------
    1        0.863   1.791   0.000   2.655
    2        0.863   1.791   0.000   2.654
    3        0.863   1.793   0.000   2.656
    4        0.863   1.793   0.000   2.656
    5        0.863   1.793   0.000   2.656
    6        0.861   1.792   0.000   2.653
    7        0.863   1.792   0.000   2.655
    8        0.863   1.793   0.000   2.656
    9        0.863   1.791   0.000   2.654
   10        0.861   1.791   0.000   2.652
   11        0.861   1.793   0.000   2.654
   12        0.863   1.792   0.000   2.656
   13        0.863   1.791   0.000   2.654
   14        0.863   1.791   0.000   2.654
   15        0.863   1.792   0.000   2.654
   16        0.863   1.793   0.000   2.656
   17        0.863   1.793   0.000   2.656
   18        0.863   1.792   0.000   2.654
   19        0.863   1.791   0.000   2.654
   20        0.863   1.791   0.000   2.654
   21        0.863   1.792   0.000   2.656
   22        0.861   1.793   0.000   2.654
   23        0.861   1.791   0.000   2.652
   24        0.863   1.791   0.000   2.654
   25        0.863   1.793   0.000   2.656
   26        0.863   1.792   0.000   2.655
   27        0.861   1.792   0.000   2.653
   28        0.863   1.793   0.000   2.656
   29        0.863   1.793   0.000   2.656
   30        0.863   1.793   0.000   2.656
   31        0.863   1.791   0.000   2.654
   32        0.863   1.791   0.000   2.655
   33        0.028   5.963   0.000   5.990
--------------------------------------------------
tot         27.636  63.305   0.000  90.942
 


 magnetization (x)
 
# of ion       s       p       d       tot
------------------------------------------
    1       -0.000   0.000   0.000   0.000
    2       -0.000  -0.000   0.000  -0.000
    3       -0.000  -0.000   0.000  -0.000
    4       -0.000  -0.000   0.000  -0.000
    5       -0.000  -0.000   0.000  -0.000
    6       -0.000  -0.000   0.000  -0.000
    7       -0.000  -0.000   0.000  -0.000
    8       -0.000  -0.000   0.000  -0.000
    9       -0.000   0.000   0.000   0.000
   10       -0.000   0.000   0.000  -0.000
   11       -0.000  -0.000   0.000  -0.000
   12       -0.000  -0.000   0.000  -0.000
   13       -0.000  -0.000   0.000  -0.000
   14       -0.000   0.000   0.000   0.000
   15       -0.000  -0.000   0.000  -0.000
   16       -0.000  -0.000   0.000  -0.000
   17       -0.000  -0.000   0.000  -0.000
   18       -0.000  -0.000   0.000  -0.000
   19       -0.000   0.000   0.000   0.000
   20       -0.000  -0.000   0.000  -0.000
   21       -0.000  -0.000   0.000  -0.000
   22       -0.000  -0.000   0.000  -0.000
   23       -0.000   0.000   0.000  -0.000
   24       -0.000   0.000   0.000   0.000
   25       -0.000  -0.000   0.000  -0.000
   26       -0.000  -0.000   0.000  -0.000
   27       -0.000   0.000   0.000  -0.000
   28       -0.000  -0.000   0.000  -0.000
   29       -0.000  -0.000   0.000  -0.000
   30       -0.000  -0.000   0.000  -0.000
   31       -0.000   0.000   0.000   0.000
   32       -0.000   0.000   0.000   0.000
   33       -0.008  -0.000   0.000  -0.008
--------------------------------------------------
tot         -0.008  -0.002   0.000  -0.010
 

 total amount of memory used by VASP MPI-rank0   613667. kBytes
=======================================================================

   base      :      30000. kBytes
   nonlr-proj:       5794. kBytes
   fftplans  :       7527. kBytes
   grid      :      72480. kBytes
   one-center:        202. kBytes
   wavefun   :     497664. kBytes
 
  
  
 General timing and accounting informations for this job:
 ========================================================
  
                  Total CPU time used (sec):     3133.311
                            User time (sec):     3078.155
                          System time (sec):       55.156
                         Elapsed time (sec):     3247.828
  
                   Maximum memory used (kb):           0.
                   Average memory used (kb):           0.
  
                          Minor page faults:       202885
                          Major page faults:           57
                 Voluntary context switches:        14822
