LAMMPS data file via write_data, version 30 Jul 2016, timestep = 1970285

5414 atoms
10 atom types
6092 bonds
8 bond types
10081 angles
11 angle types
19044 dihedrals
13 dihedral types

0.0000000000000000e+00 6.3000000000000000e+01 xlo xhi
0.0000000000000000e+00 1.1154400000000000e+02 ylo yhi
0.0000000000000000e+00 6.7999999999999998e+00 zlo zhi

Masses

1	12.011  	# CA
2	12.011		# CT
3	15.9994		# OS
4	12.011		# CF
5	15.9994		# OH
6	1.0008		# HO
7	1.0008		# HW
8	15.9994		# OW
9	39.0980		# K		
10	35.4500		# Cl

Atoms # full

4 1 1 0.0000000000000000e+00 2.7977939211631027e+00 1.2098314640294674e+00 3.3931945696153751e+00 0 0 0
5 1 1 0.0000000000000000e+00 4.1984307347820042e+00 1.2117122232238100e+00 3.4006598685155280e+00 0 0 0
76 1 4 1.4999999999999999e-01 6.9347078529764916e-01 2.4367280709102648e+00 3.6631589492264158e+00 0 0 0
77 1 5 -5.8499999999999996e-01 6.4840828253110427e-01 2.5256476483575372e+00 5.0315637803134052e+00 0 0 0
79 1 1 0.0000000000000000e+00 2.0941928826409004e+00 2.4237901642612649e+00 3.4035368680666753e+00 0 0 0
80 1 1 0.0000000000000000e+00 2.7966194748322595e+00 3.6359256223265022e+00 3.3692010703411448e+00 0 0 0
81 1 1 0.0000000000000000e+00 4.1976549869835988e+00 3.6358189917701345e+00 3.3698798219648598e+00 0 0 0
82 1 1 0.0000000000000000e+00 4.8981153729194675e+00 2.4238883658314427e+00 3.4046493917249756e+00 0 0 0
83 1 1 0.0000000000000000e+00 6.2985252266204030e+00 2.4247844595554064e+00 3.3942301079656967e+00 0 0 0
78 1 6 4.3500000000000000e-01 9.8282730632788751e-01 1.7573423796638652e+00 5.5228127827749320e+00 0 0 0
144 1 1 0.0000000000000000e+00 6.9749513092857274e-01 4.8521755760252834e+00 3.3834857423119780e+00 0 0 0
145 1 1 0.0000000000000000e+00 2.0978651042930450e+00 4.8500201909045115e+00 3.3974164003192877e+00 0 0 0
146 1 1 0.0000000000000000e+00 2.7985874825452810e+00 6.0621585261945876e+00 3.3902936307490554e+00 0 0 0
147 1 1 0.0000000000000000e+00 4.1987590528924814e+00 6.0617193824341689e+00 3.3869553163794914e+00 0 0 0
148 1 1 0.0000000000000000e+00 4.8979568261616420e+00 4.8483841138990096e+00 3.3904698871869470e+00 0 0 0
149 1 4 1.4999999999999999e-01 6.2927051974332615e+00 4.8494659811186516e+00 3.6544201116400741e+00 0 0 0
150 1 5 -5.8499999999999996e-01 6.2467066558118418e+00 4.8509236150423698e+00 5.0149990449714457e+00 0 0 0
151 1 6 4.3500000000000000e-01 5.8353990837728880e+00 4.0573019268366100e+00 5.3809081187169490e+00 0 0 0
8 1 1 0.0000000000000000e+00 6.9996202301393264e+00 1.2119900272050490e+00 3.3712882503394224e+00 0 0 0
84 1 1 0.0000000000000000e+00 6.9952627511166252e+00 3.6389239915116249e+00 3.4044267910163968e+00 0 0 0
1 1 1 0.0000000000000000e+00 6.5205631548984561e-03 1.2154890829063885e+00 3.4058411937326118e+00 0 0 0
152 1 1 0.0000000000000000e+00 6.9966618910166218e+00 6.0600167035820851e+00 3.4078116961393339e+00 0 0 0
4170 287 8 -8.4719999999999995e-01 5.5404953734016065e+00 2.6805924340929859e+00 6.5809524311117293e+00 0 0 -1
4169 287 7 4.2359999999999998e-01 5.4156411376789340e+00 1.6913450768513711e+00 6.5047870154552685e+00 0 0 -1
4168 287 7 4.2359999999999998e-01 4.6500620720202894e+00 3.1211075646231223e+00 6.6952983446448346e+00 0 0 -1
4487 393 7 4.2359999999999998e-01 2.0760439575191150e+00 4.2064705979267121e+00 1.8914084517693286e-01 1 0 0
4488 393 8 -8.4719999999999995e-01 2.9931555339969784e+00 3.8097594207382155e+00 1.5006848509882142e-01 1 0 0
4486 393 7 4.2359999999999998e-01 3.6706133986321370e+00 4.5151805137545846e+00 3.5847188303641864e-01 1 0 0
4419 370 8 -8.4719999999999995e-01 2.3591831215591506e+00 1.1987268418779466e+00 6.5223821608620325e+00 1 0 -1
4579 424 7 4.2359999999999998e-01 7.4318103338983776e-01 6.5479502593436445e+00 6.5261309141859378e+00 0 0 -1
4418 370 7 4.2359999999999998e-01 3.1218468090220801e+00 5.5777298040873335e-01 6.4356492147455340e+00 1 0 -1
4417 370 7 4.2359999999999998e-01 2.6959599892348183e+00 2.0717502895656867e+00 7.5103864219860483e-02 1 0 0
3689 127 7 4.2359999999999998e-01 5.4671459390660706e+00 6.3499141641472940e+00 1.9351740800080816e-01 0 0 0
5139 610 8 -8.4719999999999995e-01 3.0029344671331371e-01 4.7551420105504185e+00 6.5738339679550561e+00 0 0 -1
3690 127 8 -8.4719999999999995e-01 4.5367599653016848e+00 6.0699175410078583e+00 4.3012886231692088e-01 0 0 0
5331 674 8 -8.4719999999999995e-01 6.9873487955973372e+00 7.0056036621783555e+00 6.4070570755530563e+00 -1 1 -1
4960 551 7 4.2359999999999998e-01 5.9254597715506367e+00 2.7284890385453565e+01 6.3283969259893862e+00 1 0 -1
5330 674 7 4.2359999999999998e-01 6.7591992092259483e+00 6.3181174480451210e+00 5.7176293880139069e+00 -1 1 -1
3505 66 7 4.2359999999999998e-01 7.1039741535147751e+00 3.2317880001510022e+00 5.9879538028902592e-02 1 0 0
3506 66 7 4.2359999999999998e-01 8.1076444171582480e+00 4.5194476015947744e+00 9.4616464160175884e-02 1 0 0
3507 66 8 -8.4719999999999995e-01 8.0239505445473078e+00 3.5437634268699867e+00 2.9719023801437000e-01 1 0 0
9 1 4 1.4999999999999999e-01 8.3972445813102325e+00 1.2042632954684014e+00 3.1187349852390169e+00 0 0 0
10 1 5 -5.8499999999999996e-01 8.3755052168177144e+00 1.1520712312911812e+00 1.7618578344145290e+00 0 0 0
11 1 6 4.3500000000000000e-01 8.1172634578112053e+00 1.9953842258335939e+00 1.3682707824994167e+00 0 0 0
14 1 1 0.0000000000000000e+00 1.1198974345899508e+01 1.2115687338715710e+00 3.3998360418145230e+00 0 0 0
15 1 1 0.0000000000000000e+00 1.2599173850443986e+01 1.2108768236902232e+00 3.4068625376916946e+00 0 0 0
85 1 1 0.0000000000000000e+00 8.3962822827442185e+00 3.6362014085952747e+00 3.3990947814463111e+00 0 0 0
86 1 1 0.0000000000000000e+00 9.0953978482936524e+00 2.4219052059705000e+00 3.3574745999292235e+00 0 0 0
87 1 1 0.0000000000000000e+00 1.0497087347121990e+01 2.4237659770025424e+00 3.3962966559300494e+00 0 0 0
88 1 1 0.0000000000000000e+00 1.1197799390310267e+01 3.6363849487935700e+00 3.4239417766766271e+00 0 0 0
89 1 1 0.0000000000000000e+00 1.2598459214343478e+01 3.6371669095167034e+00 3.4304599488561740e+00 0 0 0
90 1 1 0.0000000000000000e+00 1.3299012359340098e+01 2.4243415488415248e+00 3.4152208894924923e+00 0 0 0
153 1 1 0.0000000000000000e+00 8.3974603301192214e+00 6.0610959450584607e+00 3.3910977224617533e+00 0 0 0
154 1 1 0.0000000000000000e+00 9.0977574593674788e+00 4.8486358254134823e+00 3.4236341720168082e+00 0 0 0
155 1 1 0.0000000000000000e+00 1.0498384453868207e+01 4.8495288328006811e+00 3.4254608480772815e+00 0 0 0
156 1 1 0.0000000000000000e+00 1.1199059690597499e+01 6.0625815512877468e+00 3.4104925138008331e+00 0 0 0
157 1 1 0.0000000000000000e+00 1.2599912715154664e+01 6.0639765021286074e+00 3.3939497931603122e+00 0 0 0
158 1 1 0.0000000000000000e+00 1.3298964729365009e+01 4.8505023521733861e+00 3.4277636749981926e+00 0 0 0
3975 222 8 -8.4719999999999995e-01 1.0679558219871007e+01 3.0269439706752728e+00 6.4200275607526542e+00 0 0 -1
3973 222 7 4.2359999999999998e-01 1.1048019731879917e+01 2.1251874495613934e+00 6.6460173323537122e+00 0 0 -1
3974 222 7 4.2359999999999998e-01 9.7053136254923835e+00 3.0545754235571789e+00 6.6438221898326306e+00 0 0 -1
4839 510 8 -8.4719999999999995e-01 9.5817966423018035e+00 5.7496577730948015e+00 6.7291692024543917e+00 1 0 -1
3695 129 7 4.2359999999999998e-01 1.2022697195504072e+01 4.0597375586258355e+00 6.4615334603991474e+00 1 0 -1
3696 129 8 -8.4719999999999995e-01 1.2642134524915448e+01 4.8340557031358387e+00 6.3321933829081578e+00 1 0 -1
3694 129 7 4.2359999999999998e-01 1.2137286174020339e+01 5.6027987845501990e+00 5.9395583923710733e+00 1 0 -1
4837 510 7 4.2359999999999998e-01 1.0060963563365735e+01 4.8831326623387632e+00 6.5894075982875586e+00 1 0 -1
4245 312 8 -8.4719999999999995e-01 1.1690788822296719e+01 6.3574771727918289e-01 3.8005349921528742e-01 0 1 0
5329 674 7 4.2359999999999998e-01 7.9114858936249499e+00 6.8389694090200877e+00 6.7508646965418144e+00 -1 1 -1
5210 634 7 4.2359999999999998e-01 1.3874616251201832e+01 2.7477771624812672e+00 1.0596820747185978e+00 1 1 0
4244 312 7 4.2359999999999998e-01 1.0887013019399069e+01 8.8888486934196612e-02 6.1434056522914615e-01 0 1 0
5209 634 7 4.2359999999999998e-01 1.3939074845479068e+01 3.0730574490991400e+00 6.2607248089597825e+00 1 1 -1
4838 510 7 4.2359999999999998e-01 1.0181639794322772e+01 6.5074352171073997e+00 6.4723393185916862e+00 1 0 -1
4814 502 7 4.2359999999999998e-01 1.9837988454908553e-01 2.5469229950162752e+01 5.4246279608320758e-01 1 0 0
4243 312 7 4.2359999999999998e-01 1.2300585405218534e+01 9.9100533574151564e-02 6.5968226481569534e+00 0 1 -1
4880 524 7 4.2359999999999998e-01 1.4048199278339876e+01 5.6748842846929666e+00 6.6114251768061463e+00 0 0 -1
4879 524 7 4.2359999999999998e-01 1.5675349545146586e+01 5.5669667247415857e+00 6.5256212096470101e+00 0 0 -1
23 1 1 0.0000000000000000e+00 1.8899475216465692e+01 2.8429158677293143e-03 3.4158346061941174e+00 0 0 0
18 1 1 0.0000000000000000e+00 1.5400006728311606e+01 1.2135676679584451e+00 3.3763097698141578e+00 0 0 0
19 1 4 1.4999999999999999e-01 1.6799906253997122e+01 1.2172338184730840e+00 3.1297662668879487e+00 0 0 0
20 1 5 -5.8499999999999996e-01 1.6817436290710781e+01 1.2464290860883072e+00 1.7638773498127063e+00 0 0 0
21 1 6 4.3500000000000000e-01 1.5964964905467806e+01 1.5176204920222367e+00 1.3848159326365177e+00 0 0 0
24 1 1 0.0000000000000000e+00 1.9600798003401369e+01 1.2139917905316009e+00 3.4061156056538962e+00 0 0 0
91 1 1 0.0000000000000000e+00 1.4699495089688870e+01 2.4255864479484210e+00 3.4131443234321592e+00 0 0 0
92 1 1 0.0000000000000000e+00 1.5399338185678195e+01 3.6379201795300951e+00 3.4109231417051338e+00 0 0 0
93 1 1 0.0000000000000000e+00 1.6799283720757479e+01 3.6372347451209857e+00 3.4358071991798118e+00 0 0 0
94 1 1 0.0000000000000000e+00 1.7498713422660682e+01 2.4238673830351645e+00 3.4073086173246034e+00 0 0 0
95 1 1 0.0000000000000000e+00 1.8899851446690516e+01 2.4252236379317740e+00 3.4351135873997234e+00 0 0 0
96 1 1 0.0000000000000000e+00 1.9600830372333679e+01 3.6380367789815735e+00 3.4437964518726325e+00 0 0 0
159 1 1 0.0000000000000000e+00 1.4699527006625242e+01 4.8503410777215770e+00 3.4169359123715459e+00 0 0 0
160 1 1 0.0000000000000000e+00 1.5399749933128847e+01 6.0630121951361424e+00 3.4241561724194405e+00 0 0 0
161 1 1 0.0000000000000000e+00 1.6800679883657473e+01 6.0643451064947103e+00 3.4140046547287954e+00 0 0 0
162 1 1 0.0000000000000000e+00 1.7499725683024081e+01 4.8503902127356806e+00 3.4411275915178141e+00 0 0 0
163 1 1 0.0000000000000000e+00 1.8899624493080839e+01 4.8502266366393387e+00 3.4226169970780180e+00 0 0 0
164 1 1 0.0000000000000000e+00 1.9597621968192744e+01 6.0631347021431381e+00 3.4543467773847998e+00 0 0 0
236 1 6 4.3500000000000000e-01 1.6991011319661055e+01 6.6038179842965468e+00 1.3661669724377143e+00 0 0 0
165 1 1 0.0000000000000000e+00 2.0998271078945535e+01 6.0625408946194934e+00 3.4443658896138345e+00 0 0 0
22 1 1 0.0000000000000000e+00 1.7498784873815477e+01 5.0821672354739358e-03 3.3917233977742769e+00 0 0 0
17 1 1 0.0000000000000000e+00 1.4699432350266369e+01 3.4329180240888491e-04 3.4029717259460637e+00 0 0 0
4560 417 8 -8.4719999999999995e-01 1.7483319224066644e+01 4.9463727770686363e+00 6.5821529375618972e+00 0 0 -1
4647 446 8 -8.4719999999999995e-01 2.0148019931801624e+01 5.4530988280449515e+00 6.5029333198480472e+00 1 1 -1
4559 417 7 4.2359999999999998e-01 1.7517812784433328e+01 3.9853838138301421e+00 6.3077254820011532e+00 0 0 -1
4881 524 8 -8.4719999999999995e-01 1.4903314969685587e+01 6.1926819235016204e+00 6.6371699708963581e+00 0 0 -1
4558 417 7 4.2359999999999998e-01 1.8390799367860726e+01 5.3543710735870835e+00 6.4820667860864187e+00 0 0 -1
5211 634 8 -8.4719999999999995e-01 1.4423842908046913e+01 2.6552847565743796e+00 2.2914281137343676e-01 1 1 0
4646 446 7 4.2359999999999998e-01 2.0400424042340617e+01 6.3858969604888038e+00 6.2456788278828927e+00 1 1 -1
4645 446 7 4.2359999999999998e-01 2.0394731427951484e+01 5.2925869770975815e+00 6.5863694823402630e-01 1 1 0
3721 138 7 4.2359999999999998e-01 1.9703718207354402e+01 6.9179186987032459e-02 6.7307156445336869e-01 0 0 0
3723 138 8 -8.4719999999999995e-01 1.8977989329252786e+01 6.4570802964850726e-01 2.9766216224193032e-01 0 0 0
3722 138 7 4.2359999999999998e-01 1.8270661950590387e+01 7.8476729684731872e-01 9.9073610006205737e-01 0 0 0
3339 10 8 -8.4719999999999995e-01 2.0969825486842140e+01 2.6062991945104990e+01 6.7232997541849331e+00 0 0 -1
4581 424 8 -8.4719999999999995e-01 7.1849338548946617e-01 7.5444836869653775e+00 6.4466780619141311e+00 0 0 -1
4580 424 7 4.2359999999999998e-01 1.6231085593004542e+00 7.8804543960227207e+00 6.1843890861178918e+00 0 0 -1
3716 136 7 4.2359999999999998e-01 1.6443519840155663e+00 1.0899257753167333e+01 5.9829324690145858e-01 0 1 0
3688 127 7 4.2359999999999998e-01 3.9677684326929739e+00 6.8816181977234701e+00 5.6200712384145446e-01 0 0 0
3717 136 8 -8.4719999999999995e-01 1.5046193825297058e+00 1.1799057651719503e+01 1.8497024367257359e-01 0 1 0
216 1 1 0.0000000000000000e+00 6.9758840766289132e-01 7.2755766814909446e+00 3.4054793407422830e+00 0 0 0
217 1 1 0.0000000000000000e+00 2.0983506546155066e+00 7.2747931074919716e+00 3.4012314316720405e+00 0 0 0
218 1 1 0.0000000000000000e+00 2.7987967292980351e+00 8.4873948034070068e+00 3.4144314204662702e+00 0 0 0
219 1 1 0.0000000000000000e+00 4.1992372080413825e+00 8.4872975965992641e+00 3.4191748799153068e+00 0 0 0
220 1 1 0.0000000000000000e+00 4.8986761123895022e+00 7.2743052638884578e+00 3.4104043819796606e+00 0 0 0
221 1 1 0.0000000000000000e+00 6.2984271040966959e+00 7.2737312910017220e+00 3.3892744517560343e+00 0 0 0
286 1 4 1.4999999999999999e-01 7.0552354925934746e-01 9.6917002470262954e+00 3.1101920026152494e+00 0 0 0
287 1 5 -5.8499999999999996e-01 7.4491065942309775e-01 9.6416392160268174e+00 1.7478278545519197e+00 0 0 0
289 1 1 0.0000000000000000e+00 2.0997347171366063e+00 9.7000611156332681e+00 3.3784330750861820e+00 0 0 0
290 1 1 0.0000000000000000e+00 2.7991214459964557e+00 1.0913129203158331e+01 3.4034270731728751e+00 0 0 0
291 1 1 0.0000000000000000e+00 4.1989815264506509e+00 1.0912278204985565e+01 3.4131175969925192e+00 0 0 0
292 1 1 0.0000000000000000e+00 4.8995094840282523e+00 9.6997248410921681e+00 3.3988959575613671e+00 0 0 0
293 1 1 0.0000000000000000e+00 6.3001768441259429e+00 9.6994686587788976e+00 3.3868114603183535e+00 0 0 0
358 1 1 0.0000000000000000e+00 7.0012934447599839e-01 1.2123304292687244e+01 3.3923507087126477e+00 0 0 0
359 1 1 0.0000000000000000e+00 2.1000533740816665e+00 1.2126423654382601e+01 3.4174310376592332e+00 0 0 0
360 1 4 1.4999999999999999e-01 2.7964961974580587e+00 1.3338288600224763e+01 3.6741706869292408e+00 0 0 0
361 1 5 -5.8499999999999996e-01 2.7872634499324667e+00 1.3355418250243222e+01 5.0402599823842316e+00 0 0 0
362 1 6 4.3500000000000000e-01 2.4469429940797558e+00 1.2547676420863075e+01 5.4380955258320274e+00 0 0 0
363 1 1 0.0000000000000000e+00 4.1946400831162887e+00 1.3338302368756990e+01 3.4051947925792931e+00 0 0 0
364 1 1 0.0000000000000000e+00 4.8972007399275848e+00 1.2125145283001959e+01 3.3825726520411155e+00 0 0 0
365 1 1 0.0000000000000000e+00 6.2988321329131152e+00 1.2124381813099117e+01 3.3792966556707822e+00 0 0 0
222 1 1 0.0000000000000000e+00 6.9986044890876240e+00 8.4864388323675772e+00 3.3884761947944861e+00 0 0 0
366 1 1 0.0000000000000000e+00 6.9987080927502960e+00 1.3337185355643706e+01 3.4016104142874073e+00 0 0 0
285 1 1 0.0000000000000000e+00 2.5379886767494557e-03 1.0908794508976559e+01 3.3394393209767386e+00 0 0 0
5037 576 8 -8.4719999999999995e-01 3.1662539437120647e+00 8.5151452340353604e+00 4.9451980339175522e-01 1 0 0
5035 576 7 4.2359999999999998e-01 2.6679216147761005e+00 8.6311077701496686e+00 1.3537157797420698e+00 1 0 0
5036 576 7 4.2359999999999998e-01 3.6477730122072178e+00 9.3627230835367463e+00 2.7146947034076396e-01 1 0 0
5337 676 8 -8.4719999999999995e-01 4.5468022355219420e+00 1.1067678547174012e+01 6.6281758944431379e+00 0 0 -1
5336 676 7 4.2359999999999998e-01 3.5523523721460593e+00 1.1170692177236914e+01 6.6067823181895671e+00 0 0 -1
5335 676 7 4.2359999999999998e-01 4.9754109803805990e+00 1.1971140768503943e+01 6.6352912172936040e+00 0 0 -1
3715 136 7 4.2359999999999998e-01 5.3926248830094281e-01 1.2050914692611922e+01 2.5319902343512463e-01 0 1 0
4399 364 7 4.2359999999999998e-01 5.9464017802303930e+00 1.0046472231556121e+01 1.2324869897875157e-01 0 0 0
4401 364 8 -8.4719999999999995e-01 6.8919575833340732e+00 9.7285522784671112e+00 5.3592494789324381e-02 0 0 0
4400 364 7 4.2359999999999998e-01 6.9014777445399460e+00 8.7730377130763877e+00 6.5588009349535783e+00 0 0 -1
4636 443 7 4.2359999999999998e-01 1.1834477233985968e+01 7.2717554815593894e+00 6.3696640682113781e-01 0 1 0
4638 443 8 -8.4719999999999995e-01 1.1551865690378637e+01 7.4680528039436638e+00 6.4980311379491376e+00 0 1 -1
4637 443 7 4.2359999999999998e-01 1.1888187434738770e+01 8.3710278181287130e+00 6.2305906893804108e+00 0 1 -1
3380 24 7 4.2359999999999998e-01 9.4547409631124246e+00 1.0390179468049624e+01 9.1633194108872118e-01 0 0 0
3381 24 8 -8.4719999999999995e-01 1.0067292610027796e+01 1.0935362371377295e+01 3.4400673398616149e-01 0 0 0
3379 24 7 4.2359999999999998e-01 9.6491113534634554e+00 1.1074217389731215e+01 6.2463187051812268e+00 0 0 -1
294 1 1 0.0000000000000000e+00 7.0012707998665791e+00 1.0912139440600278e+01 3.4074812622141279e+00 0 0 0
223 1 1 0.0000000000000000e+00 8.3982060771137430e+00 8.4887518452138782e+00 3.3814149062645678e+00 0 0 0
224 1 1 0.0000000000000000e+00 9.0977038310459637e+00 7.2746951756422735e+00 3.3705605784711592e+00 0 0 0
225 1 1 0.0000000000000000e+00 1.0498309425377645e+01 7.2742117876118844e+00 3.3807091769379793e+00 0 0 0
226 1 1 0.0000000000000000e+00 1.1199450246675323e+01 8.4859829323893017e+00 3.3952236949326897e+00 0 0 0
227 1 1 0.0000000000000000e+00 1.2600877428045829e+01 8.4831802803188197e+00 3.3832338290420947e+00 0 0 0
228 1 4 1.4999999999999999e-01 1.3303346697276300e+01 7.2713064837197567e+00 3.1279526322808180e+00 0 0 0
229 1 5 -5.8499999999999996e-01 1.3319270426877075e+01 7.2490296433721193e+00 1.7616507593166457e+00 0 0 0
295 1 4 1.4999999999999999e-01 8.4000890280937579e+00 1.0919928164883736e+01 3.6676865123081410e+00 0 0 0
296 1 5 -5.8499999999999996e-01 8.4164790047773312e+00 1.0979726117203610e+01 5.0305161792303794e+00 0 0 0
297 1 6 4.3500000000000000e-01 7.9589178564580312e+00 1.0259421179875091e+01 5.4794702030443840e+00 0 0 0
298 1 1 0.0000000000000000e+00 9.0969428336241087e+00 9.7029156447883285e+00 3.4226070911073427e+00 0 0 0
299 1 1 0.0000000000000000e+00 1.0498577064516398e+01 9.6995762272917538e+00 3.4126409701821951e+00 0 0 0
300 1 1 0.0000000000000000e+00 1.1199729718017702e+01 1.0911355956181918e+01 3.4257749286599859e+00 0 0 0
301 1 1 0.0000000000000000e+00 1.2600074760970504e+01 1.0910859948608120e+01 3.4416286079229583e+00 0 0 0
302 1 1 0.0000000000000000e+00 1.3300126910123916e+01 9.6972573821193606e+00 3.4312680666626658e+00 0 0 0
367 1 1 0.0000000000000000e+00 8.3990879566913978e+00 1.3338078513119676e+01 3.3876063255788376e+00 0 0 0
368 1 1 0.0000000000000000e+00 9.0992365089805514e+00 1.2125064001693188e+01 3.3990079165437170e+00 0 0 0
369 1 1 0.0000000000000000e+00 1.0499737166300775e+01 1.2123541219213067e+01 3.3876772299354116e+00 0 0 0
370 1 1 0.0000000000000000e+00 1.1199428359720210e+01 1.3336240240962603e+01 3.3770610909018721e+00 0 0 0
371 1 1 0.0000000000000000e+00 1.2599477257370820e+01 1.3336338087461504e+01 3.3937373449778931e+00 0 0 0
372 1 1 0.0000000000000000e+00 1.3299779924843703e+01 1.2124556093276450e+01 3.4247936575563593e+00 0 0 0
3961 218 7 4.2359999999999998e-01 1.2431979703051871e+01 1.0529947516194889e+01 1.2761730117134881e-01 0 0 0
3963 218 8 -8.4719999999999995e-01 1.3197244926227860e+01 1.0229313401731405e+01 6.3584173058363422e+00 0 0 -1
3962 218 7 4.2359999999999998e-01 1.3176534095255860e+01 1.0718622570607746e+01 5.4865527566278525e+00 0 0 -1
4876 523 7 4.2359999999999998e-01 1.0261954711086853e+01 1.2705946611929038e+01 1.4756349457036538e-01 1 1 0
3896 196 7 4.2359999999999998e-01 1.2101358774455184e+01 1.3801972804794158e+01 3.4138010539364383e-01 1 0 0
3897 196 8 -8.4719999999999995e-01 1.3036262497992043e+01 1.4155885277918316e+01 3.1488989483551522e-01 1 0 0
3895 196 7 4.2359999999999998e-01 1.3601718858025791e+01 1.3652883030222048e+01 9.6853192841891067e-01 1 0 0
4714 469 7 4.2359999999999998e-01 2.0994276379542207e+01 1.1967888365561123e+01 1.8461501162280669e-01 -1 0 0
4592 428 7 4.2359999999999998e-01 2.0087522783097601e+01 8.1195674240240905e+00 6.3575950401087553e+00 0 0 -1
4546 413 7 4.2359999999999998e-01 1.5530331574801192e+01 7.9932934677383329e+00 6.2692609448682317e+00 1 0 -1
4547 413 7 4.2359999999999998e-01 1.4657056473743280e+01 9.3693051904536304e+00 6.3722601788457496e+00 1 0 -1
5114 602 7 4.2359999999999998e-01 1.9358491839109913e+01 1.0454670242878052e+01 4.1287135445945605e-01 0 1 0
4548 413 8 -8.4719999999999995e-01 1.5580680619323884e+01 8.9860535451060830e+00 6.3783132983038699e+00 1 0 -1
3862 185 7 4.2359999999999998e-01 1.5945171412542113e+01 1.2211394487002952e+01 3.5401177843824994e-01 0 1 0
3863 185 7 4.2359999999999998e-01 1.6096001274892849e+01 1.0916034813404897e+01 6.1711992018387818e+00 0 1 -1
3864 185 8 -8.4719999999999995e-01 1.6561999224251267e+01 1.1721074659519269e+01 6.5382922633714129e+00 0 1 -1
3566 86 7 4.2359999999999998e-01 1.7551362877663319e+01 8.8761836819230577e+00 6.0541583655502693e+00 1 0 -1
3565 86 7 4.2359999999999998e-01 1.8284795754075787e+01 8.1234669612286314e+00 5.0400645828012103e-01 1 0 0
3567 86 8 -8.4719999999999995e-01 1.8416437085436723e+01 8.5013710431601766e+00 6.3875681965346969e+00 1 0 -1
5113 602 7 4.2359999999999998e-01 1.8248902736504064e+01 1.1621045433460202e+01 1.3899644554103752e-01 0 1 0
5115 602 8 -8.4719999999999995e-01 1.9219250368068494e+01 1.1386917664465194e+01 7.8915411001945046e-02 0 1 0
230 1 6 4.3500000000000000e-01 1.4201556339458039e+01 7.1896028340913514e+00 1.4121983959086140e+00 0 0 0
231 1 1 0.0000000000000000e+00 1.4699736428161158e+01 7.2745929622550323e+00 3.3896296092599201e+00 0 0 0
232 1 1 0.0000000000000000e+00 1.5400408083725070e+01 8.4866932385664136e+00 3.4315504170925939e+00 0 0 0
233 1 1 0.0000000000000000e+00 1.6801663986912850e+01 8.4853569780446758e+00 3.4099337932321676e+00 0 0 0
234 1 4 1.4999999999999999e-01 1.7502630848094732e+01 7.2736061599186961e+00 3.1554293988716648e+00 0 0 0
235 1 5 -5.8499999999999996e-01 1.7539043736548031e+01 7.2849542744852567e+00 1.7878321196380782e+00 0 0 0
237 1 1 0.0000000000000000e+00 1.8895971356781949e+01 7.2757792524326339e+00 3.4379375542442636e+00 0 0 0
238 1 1 0.0000000000000000e+00 1.9597213667926972e+01 8.4881218719265963e+00 3.4467245450796065e+00 0 0 0
303 1 1 0.0000000000000000e+00 1.4700646000236057e+01 9.7001397021079683e+00 3.4329700268178382e+00 0 0 0
304 1 1 0.0000000000000000e+00 1.5400087523467962e+01 1.0914115784826830e+01 3.4215854965540866e+00 0 0 0
305 1 1 0.0000000000000000e+00 1.6800307632429135e+01 1.0913459236345860e+01 3.3976948430046221e+00 0 0 0
306 1 1 0.0000000000000000e+00 1.7499957339273852e+01 9.6999731795162081e+00 3.4075074619302517e+00 0 0 0
307 1 1 0.0000000000000000e+00 1.8899530863758319e+01 9.7011246670672122e+00 3.3880502349723636e+00 0 0 0
308 1 1 0.0000000000000000e+00 1.9600142439264076e+01 1.0913645954094443e+01 3.4054354754157488e+00 0 0 0
373 1 1 0.0000000000000000e+00 1.4700201658265680e+01 1.2127687682372377e+01 3.4002124573007690e+00 0 0 0
374 1 4 1.4999999999999999e-01 1.5397601711157106e+01 1.3339859941583418e+01 3.1421200208086368e+00 0 0 0
375 1 5 -5.8499999999999996e-01 1.5382148406170590e+01 1.3365627780879271e+01 1.7807599910046172e+00 0 0 0
377 1 1 0.0000000000000000e+00 1.6797720696181422e+01 1.3339633934406455e+01 3.3910488276759803e+00 0 0 0
378 1 1 0.0000000000000000e+00 1.7500029260563341e+01 1.2127024123190644e+01 3.4034979437120274e+00 0 0 0
379 1 1 0.0000000000000000e+00 1.8901114012967561e+01 1.2127166876592486e+01 3.4365499219572904e+00 0 0 0
380 1 4 1.4999999999999999e-01 1.9602460249570932e+01 1.3340809244806781e+01 3.6710336643915631e+00 0 0 0
381 1 5 -5.8499999999999996e-01 1.9627166271584858e+01 1.3365113082378336e+01 5.0342195969894821e+00 0 0 0
382 1 6 4.3500000000000000e-01 1.9510284795058109e+01 1.2483240106691060e+01 5.4151719970258485e+00 0 0 0
239 1 1 0.0000000000000000e+00 2.0997728291434132e+01 8.4872281940750423e+00 3.4421235536184835e+00 0 0 0
383 1 1 0.0000000000000000e+00 2.0998665028234996e+01 1.3337432337732441e+01 3.4043873132226548e+00 0 0 0
5013 568 8 -8.4719999999999995e-01 4.8585297815468795e+00 1.3904078432458627e+01 1.6569623323113256e-01 0 1 0
5011 568 7 4.2359999999999998e-01 4.1987133922512347e+00 1.3903474909297312e+01 6.2142691075597316e+00 0 1 -1
5012 568 7 4.2359999999999998e-01 4.7809845778465778e+00 1.4760168647284754e+01 6.7667264260703919e-01 0 1 0
5275 656 7 4.2359999999999998e-01 2.0332825064895048e+00 1.5652606624997361e+01 7.6085173157889663e-01 0 1 0
5277 656 8 -8.4719999999999995e-01 1.3622612044994844e+00 1.4931382803299236e+01 5.8889810333081349e-01 0 1 0
5276 656 7 4.2359999999999998e-01 1.8262839604382113e+00 1.4046332408088222e+01 5.5189788122818839e-01 0 1 0
504 1 6 4.3500000000000000e-01 1.3748004505515518e-02 1.6384098615201491e+01 5.4057506822210604e+00 0 0 0
438 1 1 0.0000000000000000e+00 7.0012455584254796e-01 1.4549400606912549e+01 3.3862658364108853e+00 0 0 0
439 1 1 0.0000000000000000e+00 2.1003827694983204e+00 1.4549764738943507e+01 3.4169141490978912e+00 0 0 0
440 1 1 0.0000000000000000e+00 2.7994613085694837e+00 1.5762983527099639e+01 3.3780128589720144e+00 0 0 0
441 1 1 0.0000000000000000e+00 4.1998541249093417e+00 1.5764588799116982e+01 3.4055878026311386e+00 0 0 0
442 1 1 0.0000000000000000e+00 4.8975173500117064e+00 1.4550765246869620e+01 3.3847685949619843e+00 0 0 0
443 1 1 0.0000000000000000e+00 6.2985958559447868e+00 1.4549882775901981e+01 3.4025167746247686e+00 0 0 0
502 1 4 1.4999999999999999e-01 6.9887511338516195e-01 1.6968214414942228e+01 3.6599644892289636e+00 0 0 0
503 1 5 -5.8499999999999996e-01 7.0558604929354496e-01 1.6943218583372722e+01 5.0289042807346540e+00 0 0 0
505 1 1 0.0000000000000000e+00 2.0971813911843351e+00 1.6974093055091661e+01 3.4049451952224192e+00 0 0 0
506 1 1 0.0000000000000000e+00 2.7994105402877825e+00 1.8185531617495023e+01 3.3859478338856555e+00 0 0 0
507 1 1 0.0000000000000000e+00 4.2006314329328704e+00 1.8184343596119557e+01 3.4145756084002445e+00 0 0 0
508 1 4 1.4999999999999999e-01 4.9024183303997555e+00 1.6972720679644308e+01 3.6629952021199874e+00 0 0 0
509 1 5 -5.8499999999999996e-01 4.9001782275466086e+00 1.6964254662410966e+01 5.0256979791445442e+00 0 0 0
510 1 6 4.3500000000000000e-01 5.7806661627738753e+00 1.6948287717597520e+01 5.4183547488510593e+00 0 0 0
511 1 1 0.0000000000000000e+00 6.2987460170097798e+00 1.6974444631515176e+01 3.4041328733216236e+00 0 0 0
578 1 1 0.0000000000000000e+00 7.0118843714456158e-01 1.9397723735783423e+01 3.3776269827687595e+00 0 0 0
579 1 1 0.0000000000000000e+00 2.1007977337703245e+00 1.9398643721262960e+01 3.4098031069222867e+00 0 0 0
580 1 1 0.0000000000000000e+00 2.7989386152475220e+00 2.0612067567121652e+01 3.3923896663505704e+00 0 0 0
581 1 1 0.0000000000000000e+00 4.1995201782455203e+00 2.0611919395833826e+01 3.3597772352274311e+00 0 0 0
582 1 1 0.0000000000000000e+00 4.8994237030682104e+00 1.9398820968898089e+01 3.4067498196679038e+00 0 0 0
583 1 1 0.0000000000000000e+00 6.2997381313680076e+00 1.9399567117189541e+01 3.4341360536960797e+00 0 0 0
444 1 1 0.0000000000000000e+00 6.9993713237099930e+00 1.5762513441728807e+01 3.3871626441888956e+00 0 0 0
512 1 1 0.0000000000000000e+00 6.9990991453128917e+00 1.8186796642023360e+01 3.4134907320241665e+00 0 0 0
584 1 1 0.0000000000000000e+00 6.9993590067812521e+00 2.0612834224828749e+01 3.4327231161658585e+00 0 0 0
577 1 1 0.0000000000000000e+00 9.6500442887752496e-04 2.0612451134784003e+01 3.3833113721687798e+00 0 0 0
501 1 1 0.0000000000000000e+00 2.7065781623305239e-03 1.8182468075560752e+01 3.3968707466049963e+00 0 0 0
437 1 1 0.0000000000000000e+00 8.2940396064718857e-04 1.5762665757542917e+01 3.3822045608436917e+00 0 0 0
4797 496 8 -8.4719999999999995e-01 5.0279584030249094e+00 1.9328892485799997e+01 2.8487659264465631e-01 1 0 0
4830 507 8 -8.4719999999999995e-01 3.5428977142543858e+00 1.6575064728319184e+01 4.9529738036339138e-01 0 0 0
4828 507 7 4.2359999999999998e-01 3.7474502046130307e+00 1.6669797386047524e+01 6.3210361516641829e+00 0 0 -1
4829 507 7 4.2359999999999998e-01 3.4635938887797133e+00 1.7482036816691593e+01 9.0895526132987980e-01 0 0 0
4796 496 7 4.2359999999999998e-01 4.9900446727535828e+00 2.0147793945582286e+01 8.5755806007837221e-01 1 0 0
4795 496 7 4.2359999999999998e-01 4.1491735706336463e+00 1.9203115591230606e+01 6.6245307400533378e+00 1 0 -1
3646 113 7 4.2359999999999998e-01 6.1197493588825651e+00 1.7974694876336610e+01 2.2096134665187742e-01 1 0 0
5193 628 8 -8.4719999999999995e-01 2.1025238838383933e+00 1.9129779123887722e+01 6.2876207242044408e+00 1 0 -1
5191 628 7 4.2359999999999998e-01 1.9358339424789142e+00 2.0047892055983766e+01 5.9280609075941397e+00 1 0 -1
5215 636 7 4.2359999999999998e-01 6.5328121008290383e+00 2.0335964377088072e+01 6.5162163558640973e+00 0 0 -1
5192 628 7 4.2359999999999998e-01 1.6607603294429050e+00 1.8455000529945863e+01 5.6964188556172557e+00 1 0 -1
3648 113 8 -8.4719999999999995e-01 6.8106645041923928e+00 1.7252572706917135e+01 1.8665096118524971e-01 1 0 0
667 1 1 0.0000000000000000e+00 1.4700107090531086e+01 2.1823920174297214e+01 3.3775316026210902e+00 0 0 0
4148 280 7 4.2359999999999998e-01 7.6556124762280682e+00 1.5441719182948649e+01 9.2201947943662432e-02 0 0 0
4877 523 7 4.2359999999999998e-01 9.4994819394920320e+00 1.4117570238364898e+01 6.6432929881104350e+00 1 1 -1
4878 523 8 -8.4719999999999995e-01 1.0379840896395603e+01 1.3643781018523754e+01 6.6211136437336204e+00 1 1 -1
4149 280 8 -8.4719999999999995e-01 7.7578545303350861e+00 1.4483949255918914e+01 6.6234567219535574e+00 0 0 -1